[Molden Format]
[Title]
 Molden file created by orca_2mkl for BaseName=/home/nikolayandreadi_2125/_scratch/F_cc/La_F_cc

[Atoms] AU
La   1  57          0.4459829265         0.7072848077        -1.2532210186 
F    2   9         -1.5753966477        -2.3143343681        -2.9684800769 
F    3   9         -1.4979840166         3.7188393021         0.5612146467 
F    4   9          3.9508296412        -0.2401482868         0.4187368551 
[GTO]
  1 0
s   6 1.0 
   896770.4166840001      1651.3879225806
   398564.6296370000      -424.3379156277
   177139.8353940000       981.7209992710
    78728.8157310000       254.1508058902
    34990.5847690000       631.3809010161
    15551.3710090000       510.6983858205
s   1 1.0 
     6911.7204480000       540.2561451421
s   1 1.0 
     3071.8757550000       294.0781969131
s   1 1.0 
     1365.2781130000       160.0758948406
s   1 1.0 
      606.7902730000        87.1342806107
s   1 1.0 
      269.6845660000        47.4298948295
s   1 1.0 
      119.8598070000        25.8175646234
s   1 1.0 
       53.2710250000        14.0533020960
s   1 1.0 
       23.6760110000         7.6496487145
s   1 1.0 
       10.5226720000         4.1639414790
s   1 1.0 
        4.6767430000         2.2665626135
s   1 1.0 
        2.0785520000         1.2337602184
s   1 1.0 
        0.9238010000         0.6715740606
s   1 1.0 
        0.4105780000         0.3655584678
s   1 1.0 
        0.1824790000         0.1989847352
s   1 1.0 
        0.0811020000         0.1083137932
s   1 1.0 
        0.0360450000         0.0589581523
s   1 1.0 
        0.0160200000         0.0320927532
p   5 1.0 
    11986.2753990000      1952.3955328819
     4794.5101600000       868.3218153489
     1917.8040640000      1380.7954515787
      767.1216260000      1418.4854178134
      306.8486500000      1371.3064850729
p   1 1.0 
      122.7394600000       582.3315874344
p   1 1.0 
       49.0957840000       185.2445063692
p   1 1.0 
       19.6383140000        58.9278149325
p   1 1.0 
        7.8553250000        18.7454247406
p   1 1.0 
        3.1421300000         5.9630750378
p   1 1.0 
        1.2568520000         1.8969036124
p   1 1.0 
        0.5027410000         0.6034210674
p   1 1.0 
        0.2010960000         0.1919527675
p   1 1.0 
        0.0804390000         0.0610623363
p   1 1.0 
        0.0321750000         0.0194239827
p   1 1.0 
        0.0128700000         0.0061789299
d   4 1.0 
      797.4623660000      2851.7582730738
      289.9863150000      2782.3795269653
      105.4495690000      2564.2627723646
       38.3452980000      1335.5791852544
d   1 1.0 
       13.9437450000       286.8362852208
d   1 1.0 
        5.0704530000        48.8429533307
d   1 1.0 
        1.8438010000         8.3170567414
d   1 1.0 
        0.6704730000         1.4162416004
d   1 1.0 
        0.2438080000         0.2411592915
d   1 1.0 
        0.0886580000         0.0410654382
d   1 1.0 
        0.0322390000         0.0069925860
d   1 1.0 
        0.0117230000         0.0011906604
f   4 1.0 
        9.8326290000       117.1346343507
        3.2775430000        21.9421048206
        1.0925140000         1.8043818570
        0.3641710000         0.4166094652
f   1 1.0 
        0.1213900000        -0.0495920008
f   1 1.0 
        0.0404630000         0.0041867859

  2 0
s   6 1.0 
    35479.1004410000         1.9229128581
     5318.4728983000         2.2734773358
     1210.4810975000         3.4747482552
      342.8551814000         5.2879612972
      112.0194318100         7.1666332516
       40.7147402500         7.7556346254
s   1 1.0 
       16.0396781100         5.7122450312
s   1 1.0 
        6.5038186700         2.9025947842
s   1 1.0 
        1.5440477500         0.9872011154
s   1 1.0 
        0.6122345300        -0.4932856223
s   1 1.0 
        0.2402798000         0.2445952611
p   4 1.0 
       80.2339004800         4.2755032106
       18.5940107400         4.7314752302
        5.6867902700         4.0864798013
        1.9511006300         2.2989954518
p   1 1.0 
        0.6697021100         0.8635593126
p   1 1.0 
        0.2165130000         0.2105208234
d   1 1.0 
        3.1070000000        20.7284714039
d   1 1.0 
        0.8550000000         2.1672588463
f   1 1.0 
        1.9170000000        24.6547062912

  3 0
s   6 1.0 
    35479.1004410000         1.9229128581
     5318.4728983000         2.2734773358
     1210.4810975000         3.4747482552
      342.8551814000         5.2879612972
      112.0194318100         7.1666332516
       40.7147402500         7.7556346254
s   1 1.0 
       16.0396781100         5.7122450312
s   1 1.0 
        6.5038186700         2.9025947842
s   1 1.0 
        1.5440477500         0.9872011154
s   1 1.0 
        0.6122345300        -0.4932856223
s   1 1.0 
        0.2402798000         0.2445952611
p   4 1.0 
       80.2339004800         4.2755032106
       18.5940107400         4.7314752302
        5.6867902700         4.0864798013
        1.9511006300         2.2989954518
p   1 1.0 
        0.6697021100         0.8635593126
p   1 1.0 
        0.2165130000         0.2105208234
d   1 1.0 
        3.1070000000        20.7284714039
d   1 1.0 
        0.8550000000         2.1672588463
f   1 1.0 
        1.9170000000        24.6547062912

  4 0
s   6 1.0 
    35479.1004410000         1.9229128581
     5318.4728983000         2.2734773358
     1210.4810975000         3.4747482552
      342.8551814000         5.2879612972
      112.0194318100         7.1666332516
       40.7147402500         7.7556346254
s   1 1.0 
       16.0396781100         5.7122450312
s   1 1.0 
        6.5038186700         2.9025947842
s   1 1.0 
        1.5440477500         0.9872011154
s   1 1.0 
        0.6122345300        -0.4932856223
s   1 1.0 
        0.2402798000         0.2445952611
p   4 1.0 
       80.2339004800         4.2755032106
       18.5940107400         4.7314752302
        5.6867902700         4.0864798013
        1.9511006300         2.2989954518
p   1 1.0 
        0.6697021100         0.8635593126
p   1 1.0 
        0.2165130000         0.2105208234
d   1 1.0 
        3.1070000000        20.7284714039
d   1 1.0 
        0.8550000000         2.1672588463
f   1 1.0 
        1.9170000000        24.6547062912

[5D]
[7F]
[9G]
[MO]
 Sym=     1a
 Ene= -1.43618049454763E+03
 Spin= Alpha
 Occup= 2.000000
  1      -0.076248304318
  2      -0.090372764222
  3      -0.168563882392
  4      -0.298348117508
  5      -0.349937070569
  6      -0.180042786846
  7      -0.011724416800
  8      -0.003057522468
  9       0.002216606842
 10      -0.001453511580
 11       0.000982932743
 12      -0.000659063156
 13       0.000433481051
 14      -0.000282870620
 15       0.000177572458
 16      -0.000098361262
 17       0.000042470014
 18      -0.000011519487
 19      -0.000000052136
 20      -0.000000156576
 21       0.000000302374
 22       0.000000077258
 23       0.000000182523
 24      -0.000000338944
 25      -0.000000046049
 26      -0.000000112389
 27       0.000000210501
 28       0.000000047368
 29       0.000000105469
 30      -0.000000195107
 31      -0.000000058411
 32      -0.000000120816
 33       0.000000221394
 34       0.000000086481
 35       0.000000169670
 36      -0.000000309161
 37      -0.000000152877
 38      -0.000000284305
 39       0.000000515172
 40       0.000000270055
 41       0.000000472072
 42      -0.000000849256
 43      -0.000000353612
 44      -0.000000580180
 45       0.000001034830
 46       0.000000230967
 47       0.000000348994
 48      -0.000000633794
 49      -0.000000023018
 50      -0.000000007986
 51       0.000000016189
 52       0.000000003979
 53      -0.000000003782
 54       0.000000006606
 55      -0.000000010557
 56       0.000000010221
 57       0.000000015883
 58       0.000000000725
 59      -0.000000005178
 60      -0.000000045313
 61       0.000000042719
 62       0.000000068490
 63       0.000000002581
 64      -0.000000022003
 65       0.000000152074
 66      -0.000000143597
 67      -0.000000227780
 68      -0.000000010577
 69       0.000000074473
 70      -0.000000308906
 71       0.000000291091
 72       0.000000462562
 73       0.000000021394
 74      -0.000000151014
 75       0.000000635641
 76      -0.000000597112
 77      -0.000000953414
 78      -0.000000041883
 79       0.000000309173
 80      -0.000001017162
 81       0.000000951851
 82       0.000001531453
 83       0.000000060187
 84      -0.000000489604
 85       0.000000751037
 86      -0.000000695598
 87      -0.000001130052
 88      -0.000000043976
 89       0.000000361959
 90      -0.000000014233
 91       0.000000008661
 92       0.000000026705
 93      -0.000000005170
 94      -0.000000004571
 95      -0.000000005529
 96       0.000000006818
 97       0.000000006310
 98       0.000000002615
 99      -0.000000003612
100      -0.000000145002
101      -0.000000017277
102       0.000000019591
103       0.000000181021
104      -0.000000547393
105      -0.000000531822
106       0.000000151224
107      -0.000000022402
108      -0.000000014346
109      -0.000000014996
110       0.000000026669
111      -0.000000095417
112      -0.000000105827
113       0.000000027980
114       0.000000152935
115       0.000000019129
116      -0.000000018582
117      -0.000000190190
118       0.000000559570
119       0.000000545555
120      -0.000000158704
121      -0.000000027613
122       0.000000137931
123      -0.000000293448
124       0.000001242357
125       0.000002676961
126       0.000002243610
127       0.000000087070
128       0.000000131607
129       0.000000065067
130      -0.000000817113
131      -0.000001226224
132      -0.000000666398
133      -0.000000094776
134      -0.000000133587
135      -0.000000131326
136       0.000000017263
137      -0.000000040055
138      -0.000000060268
139       0.000000027201
140      -0.000000063041
141       0.000000097915
142      -0.000000129596
143      -0.000000192332
144       0.000000098924
145      -0.000000248214
146      -0.000000131887
147      -0.000000005014
148      -0.000000007342
149      -0.000000078213
150       0.000000187427
151       0.000000171104
152      -0.000000033523
153      -0.000000026706
154       0.000000133858
155      -0.000000286211
156       0.000001228604
157       0.000002667738
158       0.000002242226
159       0.000000081342
160      -0.000000119147
161      -0.000000081580
162      -0.000000781794
163       0.000001190415
164       0.000000747383
165      -0.000000086813
166       0.000000173914
167       0.000000048889
168       0.000000024353
169       0.000000036349
170      -0.000000060721
171       0.000000035833
172       0.000000067145
173       0.000000058527
174       0.000000143413
175      -0.000000209779
176       0.000000084447
177       0.000000220030
178       0.000000134707
179       0.000000001628
180       0.000000000874
181       0.000000087584
182       0.000000190374
183       0.000000170611
184       0.000000021135
185      -0.000000020711
186       0.000000106895
187      -0.000000238172
188       0.000001139286
189       0.000002611629
190       0.000002198088
191      -0.000000109640
192       0.000000034541
193      -0.000000061003
194       0.000001346904
195      -0.000000379140
196       0.000000669358
197       0.000000200899
198      -0.000000027093
199       0.000000046905
200       0.000000037848
201      -0.000000087761
202       0.000000021828
203      -0.000000092629
204       0.000000049082
205       0.000000049327
206      -0.000000167114
207       0.000000050398
208      -0.000000143142
209       0.000000096601
210       0.000000148514
211       0.000000026165
212      -0.000000004748
213      -0.000000193045
214       0.000000112438
215       0.000000144367
216      -0.000000140728
 Sym=     1a
 Ene= -2.32698548796470E+02
 Spin= Alpha
 Occup= 2.000000
  1      -0.027611821120
  2      -0.035819387493
  3      -0.068059071207
  4      -0.142039385571
  5      -0.207612910388
  6      -0.104971324865
  7       0.438702843634
  8       0.623294710743
  9       0.118995576874
 10       0.003448925534
 11      -0.002704320521
 12       0.001940577618
 13      -0.001454385433
 14       0.000998048490
 15      -0.000633095752
 16       0.000354867610
 17      -0.000153654416
 18       0.000041720644
 19      -0.000002835101
 20      -0.000004993193
 21       0.000008643682
 22      -0.000003914777
 23      -0.000006728431
 24       0.000011572189
 25      -0.000003142628
 26      -0.000005386330
 27       0.000009254033
 28      -0.000000233970
 29      -0.000000463345
 30       0.000000818689
 31      -0.000000034891
 32      -0.000000048407
 33       0.000000069418
 34      -0.000000238090
 35      -0.000000464853
 36       0.000000851751
 37       0.000000466338
 38       0.000000832342
 39      -0.000001504614
 40      -0.000000908257
 41      -0.000001553730
 42       0.000002792157
 43       0.000001274683
 44       0.000002079550
 45      -0.000003710003
 46      -0.000000843377
 47      -0.000001314445
 48       0.000002391825
 49       0.000000088501
 50       0.000000053723
 51      -0.000000105991
 52      -0.000000015733
 53       0.000000006911
 54      -0.000000010918
 55       0.000000366751
 56      -0.000000290401
 57      -0.000000636467
 58       0.000000076622
 59       0.000000095720
 60       0.000000439631
 61      -0.000000430175
 62      -0.000000616422
 63      -0.000000074911
 64       0.000000243160
 65      -0.000000164036
 66       0.000000163203
 67       0.000000221177
 68       0.000000037623
 69      -0.000000098749
 70       0.000001039991
 71      -0.000000984328
 72      -0.000001537484
 73      -0.000000092057
 74       0.000000520369
 75      -0.000002259974
 76       0.000002125538
 77       0.000003388377
 78       0.000000151307
 79      -0.000001102723
 80       0.000003686405
 81      -0.000003450255
 82      -0.000005549677
 83      -0.000000219094
 84       0.000001776202
 85      -0.000002849378
 86       0.000002648059
 87       0.000004278529
 88       0.000000178003
 89      -0.000001379699
 90       0.000000112322
 91      -0.000000091142
 92      -0.000000183755
 93       0.000000009999
 94       0.000000048919
 95       0.000000000992
 96      -0.000000005975
 97       0.000000004367
 98      -0.000000006705
 99       0.000000002925
100       0.000000501543
101       0.000000061869
102      -0.000000064506
103      -0.000000626329
104       0.000001898458
105       0.000001846731
106      -0.000000524296
107       0.000000091030
108       0.000000058384
109       0.000000061812
110      -0.000000108953
111       0.000000379191
112       0.000000422470
113      -0.000000113853
114      -0.000000551464
115      -0.000000068615
116       0.000000067690
117       0.000000685864
118      -0.000002018392
119      -0.000001967463
120       0.000000572185
121       0.000000097607
122      -0.000000499208
123       0.000001139341
124      -0.000004726361
125      -0.000009941160
126      -0.000008629755
127      -0.000000367675
128      -0.000000554038
129      -0.000000276266
130       0.000002966661
131       0.000004451894
132       0.000002421291
133       0.000000203428
134       0.000000275524
135       0.000000369285
136      -0.000000048668
137       0.000000121764
138       0.000000183713
139      -0.000000082216
140       0.000000187384
141      -0.000000374393
142       0.000000505799
143       0.000000750658
144      -0.000000384203
145       0.000000964429
146       0.000000436151
147       0.000000015701
148       0.000000022961
149       0.000000259228
150      -0.000000620328
151      -0.000000566327
152       0.000000110485
153       0.000000095160
154      -0.000000486775
155       0.000001115748
156      -0.000004679893
157      -0.000009911949
158      -0.000008626109
159      -0.000000345243
160       0.000000505952
161       0.000000343467
162       0.000002839469
163      -0.000004324907
164      -0.000002713254
165       0.000000178546
166      -0.000000431563
167      -0.000000046312
168      -0.000000075568
169      -0.000000107819
170       0.000000183821
171      -0.000000112208
172      -0.000000203564
173      -0.000000231759
174      -0.000000558141
175       0.000000815171
176      -0.000000335033
177      -0.000000859731
178      -0.000000445857
179      -0.000000005572
180      -0.000000003675
181      -0.000000290516
182      -0.000000629942
183      -0.000000565613
184      -0.000000068745
185       0.000000079113
186      -0.000000404273
187       0.000000959709
188      -0.000004381947
189      -0.000009744781
190      -0.000008503727
191       0.000000486742
192      -0.000000151046
193       0.000000266232
194      -0.000004901510
195       0.000001378719
196      -0.000002433789
197      -0.000000479530
198       0.000000025187
199      -0.000000042928
200      -0.000000121667
201       0.000000277936
202      -0.000000068027
203       0.000000295901
204      -0.000000154985
205      -0.000000203066
206       0.000000668052
207      -0.000000201969
208       0.000000583326
209      -0.000000385699
210      -0.000000494230
211      -0.000000087778
212       0.000000015343
213       0.000000642527
214      -0.000000374116
215      -0.000000481599
216       0.000000468261
 Sym=     1a
 Ene= -2.08625021006413E+02
 Spin= Alpha
 Occup= 2.000000
  1      -0.000000825550
  2      -0.000001058532
  3      -0.000002073867
  4      -0.000004106080
  5      -0.000006590182
  6      -0.000002241858
  7       0.000011610697
  8       0.000019795770
  9       0.000001629071
 10       0.000007662008
 11      -0.000014502880
 12       0.000021459303
 13      -0.000033729559
 14       0.000044798813
 15      -0.000001151567
 16      -0.000085857137
 17       0.000035993988
 18      -0.000008241405
 19       0.001935468479
 20       0.171717987608
 21      -0.300696242505
 22       0.002678235006
 23       0.237569756035
 24      -0.416009565585
 25       0.001737813866
 26       0.154165230963
 27      -0.269959463912
 28       0.000109750114
 29       0.009441164039
 30      -0.016532233114
 31       0.000024869556
 32       0.002656861875
 33      -0.004652782319
 34      -0.000011807501
 35      -0.001835516540
 36       0.003214756042
 37      -0.000004246346
 38       0.001089067154
 39      -0.001908121226
 40       0.000024116831
 41      -0.000659596393
 42       0.001156981620
 43      -0.000037492793
 44       0.000390241523
 45      -0.000686048885
 46      -0.000023008227
 47      -0.000203358375
 48       0.000355473446
 49       0.000015504324
 50       0.000095870072
 51      -0.000166993926
 52      -0.000004531020
 53      -0.000030565999
 54       0.000053258099
 55      -0.000002153057
 56       0.000000366917
 57       0.000002854193
 58       0.000000400035
 59      -0.000000177972
 60       0.000000244854
 61      -0.000000490451
 62      -0.000000000156
 63      -0.000000477446
 64       0.000000289682
 65      -0.000000375532
 66       0.000001531595
 67      -0.000000687223
 68       0.000001523838
 69      -0.000000929048
 70       0.000001260017
 71      -0.000004420210
 72       0.000001774881
 73      -0.000004368649
 74       0.000002684835
 75      -0.000003229500
 76       0.000010436094
 77      -0.000003890460
 78       0.000010334095
 79      -0.000006332729
 80       0.000006881566
 81      -0.000021230918
 82       0.000007463393
 83      -0.000020996412
 84       0.000012863391
 85       0.000008148221
 86      -0.000013099424
 87      -0.000002794431
 88      -0.000010845315
 89       0.000007602990
 90      -0.000003395469
 91       0.000007343360
 92      -0.000000523845
 93       0.000006596617
 94      -0.000004387779
 95       0.000001035959
 96      -0.000002288538
 97       0.000000201083
 98      -0.000002063645
 99       0.000001369863
100       0.000003080593
101      -0.000000101859
102      -0.000001230105
103      -0.000003869635
104       0.000002141204
105       0.000001991189
106      -0.000002558345
107      -0.000009564847
108      -0.000000950361
109      -0.000000749681
110       0.000012123962
111      -0.000011648890
112      -0.000012342996
113       0.000009212147
114      -0.000004516538
115       0.000000191241
116       0.000001912730
117       0.000005655318
118      -0.000004089616
119      -0.000003760344
120       0.000003746733
121      -0.000000047131
122       0.000000248284
123      -0.000000484356
124       0.000001239753
125       0.000002473068
126       0.000009091707
127       0.000000269588
128       0.000001401631
129      -0.000001926422
130      -0.000000579433
131      -0.000004457904
132       0.000006071930
133      -0.000000470375
134       0.000005904177
135      -0.000005400898
136      -0.000002079242
137      -0.000000866652
138      -0.000001142774
139      -0.000000857877
140       0.000000959554
141       0.000006770814
142       0.000003044841
143       0.000003797184
144       0.000002976479
145      -0.000003104074
146      -0.000000046198
147       0.000000908178
148       0.000001420729
149       0.000000029058
150       0.000000541845
151      -0.000000713895
152      -0.000000149381
153      -0.000000055216
154       0.000000286710
155      -0.000000542967
156       0.000001205025
157       0.000002459719
158       0.000009904236
159       0.000000251979
160       0.000000974014
161      -0.000002176411
162      -0.000000335631
163      -0.000003320215
164       0.000006748108
165      -0.000000312884
166       0.000000813954
167      -0.000008551611
168       0.000001712150
169      -0.000001255262
170       0.000001343855
171       0.000001291447
172       0.000000240110
173      -0.000005820573
174       0.000004053391
175      -0.000004266361
176      -0.000004217100
177      -0.000001163822
178      -0.000000106334
179      -0.000000837289
180       0.000001383120
181       0.000000135868
182      -0.000000763802
183       0.000000555598
184      -0.000000419943
185      -0.000000269568
186       0.000001324419
187      -0.000002197377
188       0.000001626740
189       0.000011422616
190       0.000066805281
191       0.000001677260
192       0.000000748567
193      -0.000001306656
194      -0.000013768640
195      -0.000000035158
196       0.000000037494
197      -0.000036560890
198       0.000012738413
199      -0.000022648696
200       0.000001281005
201       0.000001645841
202      -0.000000969307
203      -0.000001073940
204      -0.000000956340
205      -0.000006146836
206      -0.000000489168
207       0.000001948921
208       0.000008364273
209       0.000000348782
210      -0.000001381535
211       0.000001020102
212      -0.000000221266
213       0.000001801359
214      -0.000001682431
215      -0.000000316273
216       0.000001394093
 Sym=     1a
 Ene= -2.08625005571016E+02
 Spin= Alpha
 Occup= 2.000000
  1      -0.000000231986
  2      -0.000000298286
  3      -0.000000581581
  4      -0.000001163462
  5      -0.000001837642
  6      -0.000000666832
  7       0.000003432457
  8       0.000005452288
  9       0.000000426312
 10       0.000001910479
 11      -0.000003603072
 12       0.000005519061
 13      -0.000008944431
 14       0.000011729563
 15      -0.000000637027
 16      -0.000018520373
 17       0.000007161969
 18      -0.000001555170
 19       0.342172351004
 20      -0.047099719580
 21      -0.024693421363
 22       0.473389868576
 23      -0.065161401227
 24      -0.034163386962
 25       0.307195471866
 26      -0.042285074822
 27      -0.022169403429
 28       0.018804273209
 29      -0.002586585174
 30      -0.001359786869
 31       0.005307251457
 32      -0.000733285646
 33      -0.000378825955
 34      -0.003680545112
 35       0.000511431535
 36       0.000258296637
 37       0.002213042487
 38      -0.000313574745
 39      -0.000146090730
 40      -0.001396366185
 41       0.000209292789
 42       0.000074720503
 43       0.000885919386
 44      -0.000144512876
 45      -0.000029243570
 46      -0.000352242159
 47       0.000037386661
 48       0.000042601487
 49       0.000154173996
 50      -0.000013448950
 51      -0.000023061370
 52      -0.000050229919
 53       0.000004659681
 54       0.000007088743
 55       0.000000169703
 56       0.000003787488
 57      -0.000001226347
 58      -0.000000081169
 59      -0.000001740589
 60      -0.000000067658
 61       0.000000775305
 62      -0.000001063197
 63       0.000001402815
 64      -0.000000133335
 65       0.000000070694
 66      -0.000003729587
 67       0.000003971015
 68      -0.000004548188
 69       0.000000980656
 70      -0.000000093247
 71       0.000010708343
 72      -0.000011405447
 73       0.000012850187
 74      -0.000002851398
 75       0.000000157945
 76      -0.000024985579
 77       0.000026844964
 78      -0.000030216385
 79       0.000006625206
 80      -0.000000443092
 81       0.000050208892
 82      -0.000053918620
 83       0.000061018121
 84      -0.000013376630
 85       0.000000451738
 86       0.000020376941
 87      -0.000025361132
 88       0.000028531070
 89      -0.000004873187
 90      -0.000000041173
 91      -0.000014555867
 92       0.000016368473
 93      -0.000018397403
 94       0.000003753193
 95       0.000000005605
 96       0.000004590910
 97      -0.000005125409
 98       0.000005765230
 99      -0.000001190350
100      -0.000004110657
101      -0.000001600529
102       0.000000099658
103       0.000008682209
104       0.000005186876
105       0.000002549799
106       0.000005603807
107       0.000010652982
108       0.000000379685
109       0.000002822697
110      -0.000022909744
111      -0.000013207582
112      -0.000009240755
113      -0.000014612039
114       0.000005482730
115       0.000002177018
116      -0.000000059979
117      -0.000011682381
118      -0.000007207716
119      -0.000003577980
120      -0.000007474309
121      -0.000000132214
122       0.000000629003
123      -0.000000948178
124      -0.000000265787
125       0.000007435086
126       0.000047962368
127       0.000001044289
128      -0.000001745402
129      -0.000001067019
130      -0.000000425937
131       0.000011075378
132       0.000006158066
133       0.000025655835
134       0.000019855582
135       0.000014084273
136      -0.000000552933
137      -0.000000159905
138      -0.000000697051
139       0.000001342121
140       0.000000740208
141       0.000000460289
142       0.000002219415
143       0.000005720314
144      -0.000006409327
145       0.000001107559
146       0.000000824274
147       0.000000414652
148       0.000000389652
149      -0.000000271536
150      -0.000001246058
151      -0.000001014203
152       0.000001165278
153      -0.000000223667
154       0.000001062825
155      -0.000001598464
156      -0.000000552634
157       0.000011731131
158       0.000078033830
159       0.000000457965
160       0.000002207712
161       0.000001265676
162       0.000003662413
163      -0.000015717421
164      -0.000009665488
165       0.000035224864
166      -0.000039798678
167      -0.000020471989
168      -0.000000115331
169      -0.000000613192
170      -0.000000470510
171       0.000001291832
172      -0.000000208396
173      -0.000001333336
174      -0.000001640732
175       0.000007521302
176      -0.000007248561
177      -0.000004970410
178      -0.000001388485
179       0.000000058893
180      -0.000000141398
181      -0.000000279042
182      -0.000002260543
183      -0.000001599435
184      -0.000001157195
185       0.000000398059
186      -0.000001921109
187       0.000003036477
188      -0.000000447580
189      -0.000016506451
190      -0.000106779071
191      -0.000001431514
192       0.000000748918
193      -0.000001936848
194       0.000019928970
195      -0.000006505074
196       0.000013756097
197       0.000072007241
198      -0.000018661103
199       0.000028042339
200       0.000000708485
201       0.000000508472
202      -0.000000161543
203      -0.000000726830
204      -0.000000072511
205       0.000000863865
206      -0.000010843126
207       0.000003060665
208      -0.000006309603
209       0.000005292381
210       0.000002174331
211       0.000001015303
212      -0.000000201346
213      -0.000002772809
214       0.000001381191
215       0.000002381882
216      -0.000002192245
 Sym=     1a
 Ene= -2.08624983095632E+02
 Spin= Alpha
 Occup= 2.000000
  1       0.000000042443
  2       0.000000054938
  3       0.000000105723
  4       0.000000217055
  5       0.000000329183
  6       0.000000140117
  7      -0.000000697334
  8      -0.000000946361
  9      -0.000000095968
 10      -0.000000187188
 11       0.000000351245
 12      -0.000000569170
 13       0.000000979130
 14      -0.000001267386
 15      -0.000000140956
 16       0.000001974032
 17      -0.000000463341
 18       0.000000077453
 19      -0.053145064038
 20      -0.296992583176
 21      -0.169945284912
 22      -0.073525301988
 23      -0.410884094367
 24      -0.235116238201
 25      -0.047712506681
 26      -0.266633519154
 27      -0.152573136949
 28      -0.002920554929
 29      -0.016320200126
 30      -0.009338032424
 31      -0.000824374776
 32      -0.004608169309
 33      -0.002637976344
 34       0.000571778360
 35       0.003197544760
 36       0.001831592726
 37      -0.000343949268
 38      -0.001926325473
 39      -0.001105794099
 40       0.000217259278
 41       0.001222041508
 42       0.000705959899
 43      -0.000138143162
 44      -0.000781708687
 45      -0.000456232835
 46       0.000055153974
 47       0.000303763071
 48       0.000169804803
 49      -0.000023832909
 50      -0.000129853737
 51      -0.000071256838
 52       0.000007760800
 53       0.000042411184
 54       0.000023378796
 55      -0.000002572943
 56       0.000000823094
 57      -0.000001547983
 58      -0.000001446865
 59       0.000002743526
 60       0.000000176394
 61       0.000000755840
 62       0.000000232680
 63      -0.000000046718
 64       0.000001476155
 65       0.000000211872
 66      -0.000002939867
 67      -0.000000355248
 68       0.000000623471
 69      -0.000006094188
 70      -0.000000713950
 71       0.000008543653