[Molden Format]
[Title]
 Molden file created by orca_2mkl for BaseName=/home/smirnovaanastasia2304_1705/_scratch/HERDB_2/La_OH_cc

[Atoms] AU
La   1  57         -0.3629578088         0.3498298814        -0.1602846810 
O    2   8         -2.0378296402         4.0703170246        -0.1401175237 
O    3   8         -2.0200718837        -2.5790679920        -2.4275346327 
O    4   8          3.2753697113        -0.3984638731         1.5035568190 
H    5   1          4.9171751149        -0.7112343353         2.2096416506 
H    6   1         -2.8158903608         5.7091763451        -0.1855087454 
H    7   1         -2.7158501490        -3.8652968569        -3.5031743071 
[GTO]
  1 0
s   6 1.0 
   896770.4166840001      1651.3879225806
   398564.6296370000      -424.3379156277
   177139.8353940000       981.7209992710
    78728.8157310000       254.1508058902
    34990.5847690000       631.3809010161
    15551.3710090000       510.6983858205
s   1 1.0 
     6911.7204480000       540.2561451421
s   1 1.0 
     3071.8757550000       294.0781969131
s   1 1.0 
     1365.2781130000       160.0758948406
s   1 1.0 
      606.7902730000        87.1342806107
s   1 1.0 
      269.6845660000        47.4298948295
s   1 1.0 
      119.8598070000        25.8175646234
s   1 1.0 
       53.2710250000        14.0533020960
s   1 1.0 
       23.6760110000         7.6496487145
s   1 1.0 
       10.5226720000         4.1639414790
s   1 1.0 
        4.6767430000         2.2665626135
s   1 1.0 
        2.0785520000         1.2337602184
s   1 1.0 
        0.9238010000         0.6715740606
s   1 1.0 
        0.4105780000         0.3655584678
s   1 1.0 
        0.1824790000         0.1989847352
s   1 1.0 
        0.0811020000         0.1083137932
s   1 1.0 
        0.0360450000         0.0589581523
s   1 1.0 
        0.0160200000         0.0320927532
p   5 1.0 
    11986.2753990000      1952.3955328819
     4794.5101600000       868.3218153489
     1917.8040640000      1380.7954515787
      767.1216260000      1418.4854178134
      306.8486500000      1371.3064850729
p   1 1.0 
      122.7394600000       582.3315874344
p   1 1.0 
       49.0957840000       185.2445063692
p   1 1.0 
       19.6383140000        58.9278149325
p   1 1.0 
        7.8553250000        18.7454247406
p   1 1.0 
        3.1421300000         5.9630750378
p   1 1.0 
        1.2568520000         1.8969036124
p   1 1.0 
        0.5027410000         0.6034210674
p   1 1.0 
        0.2010960000         0.1919527675
p   1 1.0 
        0.0804390000         0.0610623363
p   1 1.0 
        0.0321750000         0.0194239827
p   1 1.0 
        0.0128700000         0.0061789299
d   4 1.0 
      797.4623660000      2851.7582730738
      289.9863150000      2782.3795269653
      105.4495690000      2564.2627723646
       38.3452980000      1335.5791852544
d   1 1.0 
       13.9437450000       286.8362852208
d   1 1.0 
        5.0704530000        48.8429533307
d   1 1.0 
        1.8438010000         8.3170567414
d   1 1.0 
        0.6704730000         1.4162416004
d   1 1.0 
        0.2438080000         0.2411592915
d   1 1.0 
        0.0886580000         0.0410654382
d   1 1.0 
        0.0322390000         0.0069925860
d   1 1.0 
        0.0117230000         0.0011906604
f   4 1.0 
        9.8326290000       117.1346343507
        3.2775430000        21.9421048206
        1.0925140000         1.8043818570
        0.3641710000         0.4166094652
f   1 1.0 
        0.1213900000        -0.0495920008
f   1 1.0 
        0.0404630000         0.0041867859

  2 0
s   6 1.0 
    27032.3826310000         1.4645050749
     4052.3871392000         1.8244031008
      922.3272271000         2.8547160967
      261.2407098900         4.3654874290
       85.3546413500         5.8940772662
       31.0350352400         6.2963020147
s   1 1.0 
       12.2608607300         4.6698272139
s   1 1.0 
        4.9987076000         2.3826123703
s   1 1.0 
        1.1703108200         0.8019291632
s   1 1.0 
        0.4647474100        -0.4011648063
s   1 1.0 
        0.1850453600         0.2010799377
p   4 1.0 
       63.2749548000         3.0898340730
       14.6270493800         3.3923831935
        4.4501223500         2.9482801524
        1.5275799600         1.7113350234
p   1 1.0 
        0.5293511800         0.6436057935
p   1 1.0 
        0.1747842100         0.1610897223
d   1 1.0 
        2.3140000000        12.3767310624
d   1 1.0 
        0.6450000000         1.3234257612
f   1 1.0 
        1.4280000000        12.7097950062

  3 0
s   6 1.0 
    27032.3826310000         1.4645050749
     4052.3871392000         1.8244031008
      922.3272271000         2.8547160967
      261.2407098900         4.3654874290
       85.3546413500         5.8940772662
       31.0350352400         6.2963020147
s   1 1.0 
       12.2608607300         4.6698272139
s   1 1.0 
        4.9987076000         2.3826123703
s   1 1.0 
        1.1703108200         0.8019291632
s   1 1.0 
        0.4647474100        -0.4011648063
s   1 1.0 
        0.1850453600         0.2010799377
p   4 1.0 
       63.2749548000         3.0898340730
       14.6270493800         3.3923831935
        4.4501223500         2.9482801524
        1.5275799600         1.7113350234
p   1 1.0 
        0.5293511800         0.6436057935
p   1 1.0 
        0.1747842100         0.1610897223
d   1 1.0 
        2.3140000000        12.3767310624
d   1 1.0 
        0.6450000000         1.3234257612
f   1 1.0 
        1.4280000000        12.7097950062

  4 0
s   6 1.0 
    27032.3826310000         1.4645050749
     4052.3871392000         1.8244031008
      922.3272271000         2.8547160967
      261.2407098900         4.3654874290
       85.3546413500         5.8940772662
       31.0350352400         6.2963020147
s   1 1.0 
       12.2608607300         4.6698272139
s   1 1.0 
        4.9987076000         2.3826123703
s   1 1.0 
        1.1703108200         0.8019291632
s   1 1.0 
        0.4647474100        -0.4011648063
s   1 1.0 
        0.1850453600         0.2010799377
p   4 1.0 
       63.2749548000         3.0898340730
       14.6270493800         3.3923831935
        4.4501223500         2.9482801524
        1.5275799600         1.7113350234
p   1 1.0 
        0.5293511800         0.6436057935
p   1 1.0 
        0.1747842100         0.1610897223
d   1 1.0 
        2.3140000000        12.3767310624
d   1 1.0 
        0.6450000000         1.3234257612
f   1 1.0 
        1.4280000000        12.7097950062

  5 0
s   3 1.0 
       34.0613410000         0.2556300129
        5.1235746000         0.4613599287
        1.1646626000         0.6811215012
s   1 1.0 
        0.3272304100         0.3083545312
s   1 1.0 
        0.1030724100         0.1296483265
p   1 1.0 
        0.8000000000         1.0784563492

  6 0
s   3 1.0 
       34.0613410000         0.2556300129
        5.1235746000         0.4613599287
        1.1646626000         0.6811215012
s   1 1.0 
        0.3272304100         0.3083545312
s   1 1.0 
        0.1030724100         0.1296483265
p   1 1.0 
        0.8000000000         1.0784563492

  7 0
s   3 1.0 
       34.0613410000         0.2556300129
        5.1235746000         0.4613599287
        1.1646626000         0.6811215012
s   1 1.0 
        0.3272304100         0.3083545312
s   1 1.0 
        0.1030724100         0.1296483265
p   1 1.0 
        0.8000000000         1.0784563492

[5D]
[7F]
[9G]
[MO]
 Sym=     1a
 Ene= -1.43612390079015E+03
 Spin= Alpha
 Occup= 2.000000
  1      -0.076248298419
  2      -0.090372761548
  3      -0.168563849083
  4      -0.298348130475
  5      -0.349936911023
  6      -0.180043127151
  7      -0.011723999459
  8      -0.003058332543
  9       0.002217998398
 10      -0.001455721975
 11       0.000986379230
 12      -0.000664350940
 13       0.000441466166
 14      -0.000295172048
 15       0.000193442581
 16      -0.000105762315
 17       0.000044255708
 18      -0.000010143608
 19       0.000000053920
 20      -0.000000009196
 21      -0.000000115988
 22      -0.000000063390
 23       0.000000002044
 24       0.000000128695
 25       0.000000043702
 26      -0.000000004320
 27      -0.000000089639
 28      -0.000000047307
 29       0.000000004605
 30       0.000000095224
 31       0.000000062241
 32      -0.000000006509
 33      -0.000000123791
 34      -0.000000095053
 35       0.000000009102
 36       0.000000187333
 37       0.000000162226
 38      -0.000000005807
 39      -0.000000314097
 40      -0.000000286086
 41      -0.000000019961
 42       0.000000535866
 43       0.000000478889
 44       0.000000062312
 45      -0.000000889183
 46      -0.000000362826
 47      -0.000000372477
 48       0.000000683601
 49       0.000000160421
 50       0.000000143770
 51      -0.000000325098
 52      -0.000000012243
 53      -0.000000025689
 54       0.000000030612
 55      -0.000000004491
 56       0.000000005816
 57       0.000000003219
 58      -0.000000001237
 59      -0.000000002800
 60      -0.000000086716
 61       0.000000113507
 62       0.000000063270
 63      -0.000000023597
 64      -0.000000048270
 65       0.000000257080
 66      -0.000000337142
 67      -0.000000188265
 68       0.000000069974
 69       0.000000142726
 70      -0.000000520251
 71       0.000000681664
 72       0.000000380135
 73      -0.000000141373
 74      -0.000000290012
 75       0.000001066670
 76      -0.000001392775
 77      -0.000000772984
 78       0.000000288796
 79       0.000000601936
 80      -0.000002173641
 81       0.000002847760
 82       0.000001580032
 83      -0.000000581841
 84      -0.000001225227
 85       0.000002055255
 86      -0.000002671130
 87      -0.000001435453
 88       0.000000499060
 89       0.000001354332
 90      -0.000001071514
 91       0.000001409969
 92       0.000000769375
 93      -0.000000264358
 94      -0.000000680902
 95       0.000000147022
 96      -0.000000195082
 97      -0.000000105600
 98       0.000000033699
 99       0.000000101269
100      -0.000000031926
101       0.000000012168
102      -0.000000436769
103       0.000000537229
104      -0.000000474083
105      -0.000000927747
106       0.000000297338
107      -0.000000055413
108       0.000000018659
109      -0.000000801943
110       0.000000972942
111      -0.000000736506
112      -0.000001631653
113       0.000000411626
114      -0.000000019581
115      -0.000000025525
116      -0.000000425696
117       0.000000503160
118      -0.000000401605
119      -0.000000841843
120       0.000000253617
121       0.000000018084
122      -0.000000072499
123       0.000000102359
124      -0.000000015764
125       0.000000109832
126       0.000008398696
127       0.000000060782
128      -0.000000161154
129      -0.000000005314
130      -0.000001512014
131       0.000003371909
132      -0.000000015547
133      -0.000002356624
134       0.000004676304
135      -0.000000175719
136       0.000000179022
137       0.000000022709
138       0.000000023427
139       0.000000210679
140       0.000000258340
141      -0.000000589779
142      -0.000000034902
143      -0.000000118927
144      -0.000000656708
145      -0.000000866092
146       0.000000019042
147       0.000000019992
148      -0.000000037125
149      -0.000000003776
150       0.000000037895
151      -0.000000042073
152      -0.000000007764
153       0.000000029989
154      -0.000000127228
155       0.000000203638
156      -0.000000277659
157      -0.000000331517
158       0.000007887157
159       0.000000061331
160       0.000000100658
161       0.000000077148
162      -0.000001492144
163      -0.000002662178
164      -0.000002132682
165      -0.000002063683
166      -0.000003943619
167      -0.000003308418
168      -0.000000018465
169      -0.000000149194
170      -0.000000302473
171       0.000000132692
172      -0.000000225711
173       0.000000114846
174       0.000000507781
175       0.000001044274
176      -0.000000444034
177       0.000000698514
178       0.000000013601
179      -0.000000032238
180      -0.000000037527
181       0.000000015956
182      -0.000000011479
183       0.000000023349
184      -0.000000018671
185       0.000000023099
186      -0.000000095565
187       0.000000145102
188      -0.000000128513
189      -0.000000087979
190       0.000008210309
191      -0.000000142100
192       0.000000016118
193      -0.000000069035
194       0.000003345295
195      -0.000000625868
196       0.000001500025
197       0.000004910406
198      -0.000000897971
199       0.000002125320
200       0.000000091601
201      -0.000000228197
202       0.000000071937
203      -0.000000282896
204       0.000000120117
205      -0.000000338179
206       0.000000741560
207      -0.000000210510
208       0.000000950245
209      -0.000000379818
210      -0.000000030377
211      -0.000000029819
212       0.000000015877
213       0.000000031881
214       0.000000014400
215      -0.000000019867
216       0.000000006674
217      -0.000000392497
218      -0.000006884985
219      -0.000003928942
220       0.000002079412
221      -0.000000389829
222       0.000000885734
223      -0.000000373549
224      -0.000006737707
225      -0.000003945281
226      -0.000000956378
227       0.000002033852
228      -0.000000062285
229      -0.000000419541
230      -0.000006970811
231      -0.000003861462
232      -0.000000891035
233      -0.000001642798
234      -0.000001388948
 Sym=     1a
 Ene= -2.32642358317483E+02
 Spin= Alpha
 Occup= 2.000000
  1       0.027611808452
  2       0.035819363648
  3       0.068059058045
  4       0.142039229840
  5       0.207612929542
  6       0.104971103643
  7      -0.438701372729
  8      -0.623296551072
  9      -0.118992502855
 10      -0.003455882825
 11       0.002715919101
 12      -0.001958643351
 13       0.001482319337
 14      -0.001041964692
 15       0.000690418438
 16      -0.000382676753
 17       0.000160416991
 18      -0.000036787881
 19      -0.000001603281
 20      -0.000000382561
 21       0.000002917709
 22      -0.000002161471
 23      -0.000000568230
 24       0.000003889833
 25      -0.000001710621
 26      -0.000000468837
 27       0.000003069050
 28      -0.000000176529
 29       0.000000003322
 30       0.000000343326
 31       0.000000054415
 32      -0.000000040948
 33      -0.000000120185
 34      -0.000000284974
 35       0.000000033703
 36       0.000000562942
 37       0.000000512370
 38      -0.000000014872
 39      -0.000000985041
 40      -0.000000975301
 41      -0.000000081396
 42       0.000001814736
 43       0.000001716314
 44       0.000000242086
 45      -0.000003174591
 46      -0.000001338676
 47      -0.000001325674
 48       0.000002528593
 49       0.000000593483
 50       0.000000517599
 51      -0.000001200231
 52      -0.000000047586
 53      -0.000000091777
 54       0.000000117046
 55      -0.000000578085
 56       0.000000684694
 57       0.000000341216
 58      -0.000000159134
 59      -0.000000389893
 60      -0.000000551061
 61       0.000000748860
 62       0.000000432874
 63      -0.000000150284
 64      -0.000000279488
 65       0.000000385761
 66      -0.000000524205
 67      -0.000000302630
 68       0.000000103994
 69       0.000000196015
 70      -0.000001720425
 71       0.000002265106
 72       0.000001269145
 73      -0.000000467369
 74      -0.000000947614
 75       0.000003778857
 76      -0.000004933229
 77      -0.000002737584
 78       0.000001023235
 79       0.000002133608
 80      -0.000007833295
 81       0.000010257545
 82       0.000005688867
 83      -0.000002097646
 84      -0.000004419022
 85       0.000007668572
 86      -0.000009971343
 87      -0.000005370857
 88       0.000001875156
 89       0.000005012656
 90      -0.000003979650
 91       0.000005236518
 92       0.000002860252
 93      -0.000000985920
 94      -0.000002516136
 95       0.000000562045
 96      -0.000000745643
 97      -0.000000404772
 98       0.000000130535
 99       0.000000381577
100      -0.000000115412
101       0.000000045920
102      -0.000001557756
103       0.000001915506
104      -0.000001692328
105      -0.000003311255
106       0.000001062622
107      -0.000000204172
108       0.000000072537
109      -0.000002942825
110       0.000003573289
111      -0.000002728731
112      -0.000006002376
113       0.000001531432
114      -0.000000071807
115      -0.000000091127
116      -0.000001549706
117       0.000001832770
118      -0.000001464780
119      -0.000003067927
120       0.000000925419
121       0.000000028609
122      -0.000000169790
123       0.000000184442
124       0.000000367719
125       0.000000990325
126       0.000030994687
127       0.000000253048
128      -0.000000658112
129      -0.000000018734
130      -0.000005411802
131       0.000012071389
132      -0.000000052972
133      -0.000008239188
134       0.000016301878
135      -0.000000623922
136       0.000000608153
137       0.000000080151
138       0.000000082444
139       0.000000716032
140       0.000000881498
141      -0.000002010569
142      -0.000000122952
143      -0.000000421966
144      -0.000002234793
145      -0.000002967322
146       0.000000066547
147       0.000000089894
148      -0.000000174379
149      -0.000000014276
150       0.000000133415
151      -0.000000206613
152      -0.000000009141
153       0.000000063600
154      -0.000000348330
155       0.000000531772
156      -0.000000561977
157      -0.000000581751
158       0.000029209596
159       0.000000255385
160       0.000000423807
161       0.000000326546
162      -0.000005351619
163      -0.000009544684
164      -0.000007643685
165      -0.000007188115
166      -0.000013757811
167      -0.000011556616
168      -0.000000065163
169      -0.000000510865
170      -0.000001039649
171       0.000000456513
172      -0.000000776616
173       0.000000409361
174       0.000001746560
175       0.000003607231
176      -0.000001533345
177       0.000002406076
178       0.000000080426
179      -0.000000125384
180      -0.000000152369
181       0.000000086949
182      -0.000000091628
183       0.000000046608
184      -0.000000066890
185       0.000000043324
186      -0.000000244976
187       0.000000330852
188      -0.000000032003
189       0.000000286195
190       0.000030338836
191      -0.000000588570
192       0.000000073247
193      -0.000000282665
194       0.000011982130
195      -0.000002241596
196       0.000005375411
197       0.000017137544
198      -0.000003132426
199       0.000007412431
200       0.000000312068
201      -0.000000777812
202       0.000000248471
203      -0.000000968432
204       0.000000412402
205      -0.000001161673
206       0.000002533842
207      -0.000000727231
208       0.000003267149
209      -0.000001306747
210      -0.000000142181
211      -0.000000112360
212       0.000000057593
213       0.000000160432
214       0.000000030733
215      -0.000000108685
216       0.000000050327
217      -0.000001382296
218      -0.000024419363
219      -0.000014227588
220       0.000007391620
221      -0.000001384665
222       0.000003149237
223      -0.000001311070
224      -0.000023884103
225      -0.000014290950
226      -0.000003394897
227       0.000007224548
228      -0.000000220203
229      -0.000001483972
230      -0.000024739579
231      -0.000013977353
232      -0.000003171983
233      -0.000005846290
234      -0.000004941886
 Sym=     1a
 Ene= -2.08568814869522E+02
 Spin= Alpha
 Occup= 2.000000
  1       0.000000272483
  2       0.000000347313
  3       0.000000691597
  4       0.000001332134
  5       0.000002229652
  6       0.000000606100
  7      -0.000003523137
  8      -0.000007113608
  9       0.000000564222
 10      -0.000004599072
 11       0.000008231365
 12      -0.000012390919
 13       0.000018730164
 14      -0.000024718684
 15      -0.000007220310
 16       0.000088130417
 17      -0.000026938452
 18       0.000006487162
 19       0.168703332209
 20       0.092178056955
 21      -0.288012078698
 22       0.233399330991
 23       0.127527456729
 24      -0.398461689865
 25       0.151459215215
 26       0.082755984594
 27      -0.258572783223
 28       0.009276161977
 29       0.005068773648
 30      -0.015835944871
 31       0.002609312845
 32       0.001425094708
 33      -0.004455353981
 34      -0.001801689482
 35      -0.000983331532
 36       0.003077135154
 37       0.001066993281
 38       0.000581002600
 39      -0.001823909141
 40      -0.000642331233
 41      -0.000347213728
 42       0.001100995153
 43       0.000375988666
 44       0.000199301829
 45      -0.000648991537
 46      -0.000209732372
 47      -0.000118641623
 48       0.000353956887
 49       0.000097811575
 50       0.000054976331
 51      -0.000165427635
 52      -0.000031069874
 53      -0.000017538136
 54       0.000052451049
 55       0.000000722670
 56      -0.000000852487
 57      -0.000000320969
 58       0.000000212551
 59       0.000000206974
 60      -0.000000128790
 61       0.000000250103
 62       0.000000212336
 63      -0.000000052634
 64      -0.000000033683
 65       0.000000251785
 66      -0.000000539720
 67      -0.000000496115
 68       0.000000117605
 69       0.000000005932
 70      -0.000000654652
 71       0.000001338393
 72       0.000001193386
 73      -0.000000298509
 74       0.000000020101
 75       0.000001498068
 76      -0.000003007863
 77      -0.000002645991
 78       0.000000678928
 79      -0.000000070823
 80      -0.000003848733
 81       0.000007485570
 82       0.000006369458
 83      -0.000001680028
 84       0.000000118405
 85      -0.000007996473
 86       0.000011389062
 87       0.000007098828
 88      -0.000002611646
 89      -0.000002212861
 90       0.000002246119
 91      -0.000003171669
 92      -0.000002008431
 93       0.000000736536
 94       0.000000676210
 95      -0.000000699236
 96       0.000001044631
 97       0.000000703564
 98      -0.000000241971
 99      -0.000000161864
100       0.000000726290
101      -0.000002293990
102      -0.000001772145
103       0.000001632057
104       0.000000454164
105      -0.000001176135
106       0.000000746331
107      -0.000000173438
108      -0.000000308074
109       0.000004311250
110      -0.000005935754
111       0.000006506844
112       0.000010112595
113      -0.000003263384
114      -0.000000907796
115       0.000003249135
116       0.000002458271
117      -0.000002145858
118      -0.000001090519
119       0.000001572922
120      -0.000001246032
121       0.000000149070
122      -0.000000760130
123       0.000001450273
124      -0.000004180855
125      -0.000010993433
126      -0.000018914156
127       0.000001248591
128       0.000000499916
129      -0.000001986234
130      -0.000005419618
131       0.000001347414
132       0.000006404332
133      -0.000002674916
134       0.000019246935
135      -0.000009114867
136       0.000000276196
137      -0.000001358672
138       0.000002643169
139       0.000001748950
140      -0.000001028300
141      -0.000001135755
142       0.000005155997
143      -0.000010362225
144      -0.000006877424
145       0.000003767845
146      -0.000000954731
147       0.000000291325
148       0.000000035912
149      -0.000000785946
150      -0.000000935173
151      -0.000000571011
152      -0.000000942000
153       0.000000231699
154      -0.000001179381
155       0.000002242495
156      -0.000006476517
157      -0.000017426154
158      -0.000024561971
159       0.000001368461
160       0.000000989464
161      -0.000001758525
162      -0.000007087438
163      -0.000007897936
164       0.000002086108
165      -0.000007377588
166      -0.000020338917
167      -0.000027514892
168      -0.000002658617
169      -0.000000486909
170      -0.000001944177
171       0.000000156781
172       0.000001466829
173       0.000010680450
174       0.000001961938
175       0.000007964132
176      -0.000000735113
177      -0.000005615857
178       0.000000629392
179       0.000000617915
180       0.000001123248
181      -0.000000109796
182      -0.000000472920
183      -0.000000928250
184       0.000000338161
185       0.000000173319
186      -0.000000883619
187       0.000001685987
188      -0.000004878217
189      -0.000012842270
190      -0.000020409645
191       0.000000975464
192       0.000000705786
193      -0.000002086909
194       0.000000452114
195      -0.000003015259
196       0.000008448663
197       0.000024788109
198      -0.000001260433
199      -0.000000223222
200       0.000002336185
201       0.000001665466
202      -0.000000968956
203      -0.000001901445
204      -0.000000449423
205      -0.000009161160
206      -0.000006417132
207       0.000003674456
208       0.000007717464
209       0.000001689944
210      -0.000000288299
211       0.000001437756
212      -0.000000296622
213       0.000000600136
214      -0.000000723957
215       0.000000553215
216       0.000000247080
217      -0.000000619841
218      -0.000013794349
219      -0.000002115069
220       0.000001401680
221      -0.000001922335
222       0.000005424009
223      -0.000000456670
224      -0.000011112492
225      -0.000001415056
226      -0.000003681069
227       0.000001663334
228       0.000003782092
229      -0.000000933086
230      -0.000021576070
231      -0.000004199104
232      -0.000004644606
233      -0.000005692510
234       0.000000012299
 Sym=     1a
 Ene= -2.08568778231275E+02
 Spin= Alpha
 Occup= 2.000000
  1       0.000000029383
  2       0.000000036491
  3       0.000000077062
  4       0.000000132804
  5       0.000000261768
  6       0.000000012463
  7      -0.000000214957
  8      -0.000000986169
  9       0.000000355309
 10      -0.000001161234
 11       0.000002014838
 12      -0.000002920877
 13       0.000004005113
 14      -0.000005262581
 15      -0.000002811977
 16       0.000029627818
 17      -0.000008335037
 18       0.000002030959
 19      -0.205492085305
 20      -0.207015314984
 21      -0.186622402301
 22      -0.284294223747
 23      -0.286401562461
 24      -0.258188297776
 25      -0.184488541669
 26      -0.185856098949
 27      -0.167547603632
 28      -0.011287726273
 29      -0.011371283358
 30      -0.010250647198
 31      -0.003197597220
 32      -0.003221502774
 33      -0.002904936729
 34       0.002229452246
 35       0.002246348489
 36       0.002026466963
 37      -0.001363718763
 38      -0.001374505595
 39      -0.001241687391
 40       0.000903886867
 41       0.000911857107
 42       0.000826971964
 43      -0.000649909796
 44      -0.000656807791
 45      -0.000600393650
 46       0.000139867231
 47       0.000140459785
 48       0.000124188953
 49      -0.000073858852
 50      -0.000074076888
 51      -0.000065895996
 52       0.000021111474
 53       0.000021162672
 54       0.000018601392
 55       0.000001007805
 56       0.000000296899
 57       0.000000979343
 58      -0.000000580599
 59       0.000000084230
 60       0.000000941635
 61      -0.000000078119
 62       0.000002773195
 63      -0.000002007163
 64       0.000003267055
 65      -0.000003040232
 66       0.000000160391
 67      -0.000008297805
 68       0.000005977565
 69      -0.000009462885
 70       0.000007623301
 71      -0.000000410705
 72       0.000020528701
 73      -0.000014799805
 74       0.000023316148
 75      -0.000017298154
 76       0.000001025442
 77      -0.000046238042
 78       0.000033365343
 79      -0.000052553328
 80       0.000039741671
 81      -0.000002013505
 82       0.000107237704
 83      -0.000077347413
 84       0.000121451328
 85       0.000011565103
 86       0.000000871587
 87       0.000050404672
 88      -0.000035810804
 89       0.000061226547
 90      -0.000003680058
 91      -0.000000178322
 92      -0.000015969660
 93       0.000011324487
 94      -0.000019729360
 95       0.000002076617
 96      -0.000000013187
 97       0.000007213405
 98      -0.000005162746
 99       0.000008595612
100       0.000015562812
101      -0.000003742300
102      -0.000001959818
103      -0.000000623369
104      -0.000010426771
105       0.000002957439
106      -0.000006827645
107      -0.000035293173
108       0.000006570574
109       0.000002836575
110      -0.000001145266
111       0.000022512128
112      -0.000000943058
113       0.000016269889
114      -0.000010089063
115       0.000002230858
116      -0.000000086962
117       0.000000703305
118       0.000006262959
119      -0.000000836456
120       0.000003793160
121      -0.000000411272
122       0.000002064006
123      -0.000003786750
124       0.000010853292
125       0.000037877508
126       0.000033584749
127      -0.000001733494
128       0.000001710598
129      -0.000000545082
130       0.000016671299
131      -0.000027428613
132       0.000002648901
133       0.000037067040
134      -0.000097504856
135      -0.000003687426
136      -0.000000891341
137      -0.000000371643
138       0.000000634819
139      -0.000001837792
140      -0.000000218778
141       0.000003573177
142       0.000001575298
143      -0.000002849090
144       0.000008046332
145       0.000000577266
146      -0.000000573151
147      -0.000000682800
148       0.000001292786
149      -0.000000266939
150      -0.000000106516
151       0.000001974201
152       0.000000106587
153       0.000001700280
154      -0.000008575393
155       0.000015933506
156      -0.000044980973
157      -0.000140524411
158      -0.000136886718
159       0.000002347083
160       0.000004560095
161       0.000003309748
162      -0.000039621052
163      -0.000073411419
164      -0.000058161146
165      -0.000142421006
166      -0.000251172106
167      -0.000207240938
168      -0.000000368644
169      -0.000002732349
170      -0.000004892896
171       0.000001859467
172      -0.000003337127
173       0.000002916489
174       0.000011302627
175       0.000020524354
176      -0.000007349727
177       0.000012693684
178       0.000002270810
179      -0.000001420514
180      -0.000002694269
181       0.000003122066
182      -0.000004210322
183      -0.000002769964
184      -0.000000368020
185      -0.000000962691
186       0.000004841748
187      -0.000008932401
188       0.000025402249
189       0.000084427208
190       0.000077409178