[Molden Format]
[Title]
 Molden file created by orca_2mkl for BaseName=/home/nikolayandreadi_2125/_scratch/F2_cc/Yb_F2_cc

[Atoms] AU
Yb   1  70         -0.2410496862        -0.3053684049        -1.4842362590 
F    2   9         -1.8829401274         2.8502625894        -0.6390675840 
F    3   9          3.2989308168        -0.8832844512        -0.7546810288 
[GTO]
  1 0
s   6 1.0 
  1358076.4019249999      2707.2930152518
   603589.5119670000      -738.3436407800
   268262.0053190000      1561.8093109918
   119227.5579190000       321.3188957239
    52990.0257420000       910.2592971992
    23551.1225520000       650.0002417902
s   1 1.0 
    10467.1655790000       737.5337741991
s   1 1.0 
     4652.0735910000       401.4625366565
s   1 1.0 
     2067.5882620000       218.5285256475
s   1 1.0 
      918.9281170000       118.9518627382
s   1 1.0 
      408.4124960000        64.7491927610
s   1 1.0 
      181.5166650000        35.2449963543
s   1 1.0 
       80.6740730000        19.1849459526
s   1 1.0 
       35.8551440000        10.4429619475
s   1 1.0 
       15.9356190000         5.6844283346
s   1 1.0 
        7.0824980000         3.0942110849
s   1 1.0 
        3.1477770000         1.6842752256
s   1 1.0 
        1.3990120000         0.9168033087
s   1 1.0 
        0.6217830000         0.4990444444
s   1 1.0 
        0.2763480000         0.2716453884
s   1 1.0 
        0.1228210000         0.1478647196
s   1 1.0 
        0.0545870000         0.0804872358
s   1 1.0 
        0.0242610000         0.0438118524
p   5 1.0 
    18741.9577990000      4543.1010834218
     7496.7831200000      1702.6495515717
     2998.7132480000      2688.5302230256
     1199.4852990000      2527.9583676190
      479.7941200000      2363.5203868406
p   1 1.0 
      191.9176480000      1018.2014909638
p   1 1.0 
       76.7670590000       323.8983356454
p   1 1.0 
       30.7068240000       103.0347478518
p   1 1.0 
       12.2827290000        32.7762056036
p   1 1.0 
        4.9130920000        10.4263838277
p   1 1.0 
        1.9652370000         3.3167195680
p   1 1.0 
        0.7860950000         1.0550763307
p   1 1.0 
        0.3144380000         0.3356285290
p   1 1.0 
        0.1257750000         0.1067660057
p   1 1.0 
        0.0503100000         0.0339631517
p   1 1.0 
        0.0201240000         0.0108039602
d   4 1.0 
     1379.8152340000      7325.4223721174
      501.7509940000      6870.7279056516
      182.4549070000      6434.1168847394
       66.3472390000      3527.4353518373
d   1 1.0 
       24.1262690000       748.7345495231
d   1 1.0 
        8.7731890000       127.4957426618
d   1 1.0 
        3.1902500000        21.7101757349
d   1 1.0 
        1.1600910000         3.6968445084
d   1 1.0 
        0.4218510000         0.6295039778
d   1 1.0 
        0.1534000000         0.1071925155
d   1 1.0 
        0.0557820000         0.0182530198
d   1 1.0 
        0.0202840000         0.0031080564
f   4 1.0 
       41.1409390000      2636.1638558181
       13.7136460000       730.3196574878
        4.5712150000        90.4591085871
        1.5237380000         5.2735892425
f   1 1.0 
        0.5079130000         1.2417268408
f   1 1.0 
        0.1693040000         0.1048337984

  2 0
s   6 1.0 
    35479.1004410000         1.9229128581
     5318.4728983000         2.2734773358
     1210.4810975000         3.4747482552
      342.8551814000         5.2879612972
      112.0194318100         7.1666332516
       40.7147402500         7.7556346254
s   1 1.0 
       16.0396781100         5.7122450312
s   1 1.0 
        6.5038186700         2.9025947842
s   1 1.0 
        1.5440477500         0.9872011154
s   1 1.0 
        0.6122345300        -0.4932856223
s   1 1.0 
        0.2402798000         0.2445952611
p   4 1.0 
       80.2339004800         4.2755032106
       18.5940107400         4.7314752302
        5.6867902700         4.0864798013
        1.9511006300         2.2989954518
p   1 1.0 
        0.6697021100         0.8635593126
p   1 1.0 
        0.2165130000         0.2105208234
d   1 1.0 
        3.1070000000        20.7284714039
d   1 1.0 
        0.8550000000         2.1672588463
f   1 1.0 
        1.9170000000        24.6547062912

  3 0
s   6 1.0 
    35479.1004410000         1.9229128581
     5318.4728983000         2.2734773358
     1210.4810975000         3.4747482552
      342.8551814000         5.2879612972
      112.0194318100         7.1666332516
       40.7147402500         7.7556346254
s   1 1.0 
       16.0396781100         5.7122450312
s   1 1.0 
        6.5038186700         2.9025947842
s   1 1.0 
        1.5440477500         0.9872011154
s   1 1.0 
        0.6122345300        -0.4932856223
s   1 1.0 
        0.2402798000         0.2445952611
p   4 1.0 
       80.2339004800         4.2755032106
       18.5940107400         4.7314752302
        5.6867902700         4.0864798013
        1.9511006300         2.2989954518
p   1 1.0 
        0.6697021100         0.8635593126
p   1 1.0 
        0.2165130000         0.2105208234
d   1 1.0 
        3.1070000000        20.7284714039
d   1 1.0 
        0.8550000000         2.1672588463
f   1 1.0 
        1.9170000000        24.6547062912

[5D]
[7F]
[9G]
[MO]
 Sym=     1a
 Ene= -2.26152338705918E+03
 Spin= Alpha
 Occup= 1.000000
  1      -0.097624267341
  2      -0.105338020419
  3      -0.178974024346
  4      -0.301053361852
  5      -0.331949277849
  6      -0.165098185691
  7      -0.008758933563
  8      -0.003429082854
  9       0.002494358406
 10      -0.001653436421
 11       0.001109927722
 12      -0.000743397318
 13       0.000493062582
 14      -0.000328301083
 15       0.000222153689
 16      -0.000143240444
 17       0.000050897037
 18      -0.000012804050
 19       0.000000033914
 20       0.000000046845
 21       0.000000028744
 22      -0.000000087773
 23      -0.000000122209
 24      -0.000000074217
 25       0.000000105660
 26       0.000000144968
 27       0.000000088388
 28      -0.000000217848
 29      -0.000000296996
 30      -0.000000181277
 31       0.000000391215
 32       0.000000532503
 33       0.000000325105
 34      -0.000000677320
 35      -0.000000921747
 36      -0.000000562735
 37       0.000001206031
 38       0.000001643177
 39       0.000001002763
 40      -0.000002102959
 41      -0.000002871144
 42      -0.000001750931
 43       0.000003515463
 44       0.000004799641
 45       0.000002926984
 46      -0.000007900905
 47      -0.000010855448
 48      -0.000006606343
 49       0.000001317838
 50       0.000001817167
 51       0.000001104587
 52      -0.000000197502
 53      -0.000000275293
 54      -0.000000166755
 55       0.000000248731
 56      -0.000000095475
 57      -0.000000151521
 58      -0.000000047046
 59       0.000000141401
 60      -0.000000330269
 61       0.000000097124
 62       0.000000162105
 63       0.000000088548
 64      -0.000000263046
 65       0.000000498184
 66      -0.000000112881
 67      -0.000000200296
 68      -0.000000162709
 69       0.000000481748
 70      -0.000000880172
 71       0.000000167519
 72       0.000000312036
 73       0.000000314617
 74      -0.000000931278
 75       0.000001647559
 76      -0.000000291319
 77      -0.000000555529
 78      -0.000000606723
 79       0.000001798425
 80      -0.000002793151
 81       0.000000472358
 82       0.000000913444
 83       0.000001046128
 84      -0.000003101803
 85       0.000007856423
 86      -0.000001306063
 87      -0.000002545253
 88      -0.000002952160
 89       0.000008775779
 90      -0.000000615731
 91       0.000000133317
 92       0.000000241098
 93       0.000000205665
 94      -0.000000612093
 95      -0.000000014429
 96      -0.000000002820
 97      -0.000000003034
 98       0.000000010829
 99      -0.000000029412
100       0.000000122420
101       0.000000056298
102       0.000000064414
103      -0.000000022596
104       0.000000097883
105       0.000000287214
106      -0.000000092069
107      -0.000000672574
108      -0.000000311018
109      -0.000000356455
110       0.000000126836
111      -0.000000548491
112      -0.000001594574
113       0.000000511171
114       0.000002294420
115       0.000001072845
116       0.000001224392
117      -0.000000448723
118       0.000001916391
119       0.000005512429
120      -0.000001768177
121      -0.000000177800
122       0.000000815686
123      -0.000001539675
124       0.000004353935
125       0.000008376479
126       0.000018485638
127       0.000000346545
128      -0.000000640978
129      -0.000000168113
130      -0.000001344169
131       0.000002526735
132       0.000000668681
133       0.000003351239
134      -0.000007092746
135      -0.000001992237
136      -0.000000172489
137      -0.000000027993
138       0.000000120749
139      -0.000000104309
140      -0.000000225688
141       0.000000883176
142       0.000000252249
143      -0.000000660477
144       0.000000732842
145       0.000001280636
146      -0.000000155845
147       0.000000091863
148      -0.000000178058
149      -0.000000115244
150      -0.000000143664
151      -0.000000319679
152       0.000000038645
153      -0.000000177903
154       0.000000815962
155      -0.000001539423
156       0.000004341333
157       0.000008331472
158       0.000018381149
159      -0.000000723705
160       0.000000129814
161      -0.000000144367
162       0.000002824437
163      -0.000000487439
164       0.000000571294
165      -0.000007816394
166       0.000000973555
167      -0.000001734871
168      -0.000000179844
169       0.000000106832
170       0.000000016606
171       0.000000226099
172      -0.000000121392
173       0.000000918352
174      -0.000000607616
175       0.000000009081
176      -0.000001374810
177       0.000000600751
178      -0.000000140617
179      -0.000000220669
180       0.000000035442
181       0.000000157328
182      -0.000000039928
183      -0.000000293403
184       0.000000158360
 Sym=     1a
 Ene= -3.88756726651988E+02
 Spin= Alpha
 Occup= 1.000000
  1      -0.037449209017
  2      -0.044754314241
  3      -0.076787725736
  4      -0.152416830519
  5      -0.201594853458
  6      -0.062879135444
  7       0.493333783665
  8       0.582340512576
  9       0.081786375999
 10       0.004936346191
 11      -0.004329378396
 12       0.003043759383
 13      -0.002146478274
 14       0.001471480818
 15      -0.001003317379
 16       0.000650205176
 17      -0.000231424300
 18       0.000058283355
 19       0.000001737429
 20       0.000002505688
 21       0.000001495601
 22       0.000002996951
 23       0.000004265462
 24       0.000002558282
 25       0.000002298829
 26       0.000003267170
 27       0.000001959249
 28      -0.000000040743
 29      -0.000000029254
 30      -0.000000024998
 31      -0.000000980663
 32      -0.000001333729
 33      -0.000000814234
 34       0.000002742194
 35       0.000003732421
 36       0.000002278400
 37      -0.000005297713
 38      -0.000007219295
 39      -0.000004405233
 40       0.000009420053
 41       0.000012863850
 42       0.000007844239
 43      -0.000015987022
 44      -0.000021832304
 45      -0.000013313053
 46       0.000035947252
 47       0.000049391808
 48       0.000030058149
 49      -0.000005987029
 50      -0.000008256281
 51      -0.000005018514
 52       0.000000896821
 53       0.000001250320
 54       0.000000757307
 55      -0.000030346123
 56       0.000012650287
 57       0.000019803560
 58       0.000004893405
 59      -0.000014743497
 60      -0.000003744265
 61       0.000001503674
 62       0.000002366673
 63       0.000000656542
 64      -0.000001965374
 65      -0.000000452406
 66      -0.000000103065
 67      -0.000000087735
 68       0.000000322051
 69      -0.000000952791
 70       0.000002958730
 71      -0.000000430744
 72      -0.000000875769
 73      -0.000001169068
 74       0.000003461970
 75      -0.000007167660
 76       0.000001226204
 77       0.000002363532
 78       0.000002674155
 79      -0.000007927692
 80       0.000012574409
 81      -0.000002098714
 82      -0.000004076813
 83      -0.000004731889
 84       0.000014033276
 85      -0.000035671328
 86       0.000005910938
 87       0.000011531807
 88       0.000013419466
 89      -0.000039893001
 90       0.000002761963
 91      -0.000000593234
 92      -0.000001075344
 93      -0.000000926552
 94       0.000002757758
 95       0.000000078907
 96       0.000000008107
 97       0.000000006238
 98      -0.000000052168
 99       0.000000142332
100      -0.000000613691
101      -0.000000281267
102      -0.000000322321
103       0.000000112408
104      -0.000000487236
105      -0.000001434800
106       0.000000459346
107       0.000003146772
108       0.000001453811
109       0.000001666780
110      -0.000000591778
111       0.000002561076
112       0.000007452538
113      -0.000002388734
114      -0.000010481358
115      -0.000004900173
116      -0.000005592569
117       0.000002048854
118      -0.000008751038
119      -0.000025176529
120       0.000008075471
121       0.000000692175
122      -0.000003428944
123       0.000006765018
124      -0.000019652910
125      -0.000037836750
126      -0.000083997614
127      -0.000001601718
128       0.000002967140
129       0.000000778876
130       0.000006087713
131      -0.000011441648
132      -0.000003027659
133      -0.000015223341
134       0.000032223053
135       0.000009051337
136       0.000000809052
137       0.000000139520
138      -0.000000569624
139       0.000000504393
140       0.000001067954
141      -0.000004061377
142      -0.000001165632
143       0.000003038909
144      -0.000003379568
145      -0.000005896002
146       0.000000721960
147      -0.000000427431
148       0.000000827573
149       0.000000533607
150       0.000000670040
151       0.000001487989
152      -0.000000178311
153       0.000000692408
154      -0.000003429412
155       0.000006762516
156      -0.000019593000
157      -0.000037630120
158      -0.000083522174
159       0.000003348305
160      -0.000000598433
161       0.000000668818
162      -0.000012788081
163       0.000002207888
164      -0.000002586238
165       0.000035510272
166      -0.000004421563
167       0.000007882154
168       0.000000843421
169      -0.000000505774
170      -0.000000070804
171      -0.000001077050
172       0.000000567734
173      -0.000004222535
174       0.000002796458
175      -0.000000046706
176       0.000006332174
177      -0.000002762052
178       0.000000650637
179       0.000001024798
180      -0.000000165065
181      -0.000000730260
182       0.000000188349
183       0.000001363401
184      -0.000000737816
 Sym=     1a
 Ene= -3.43703951861649E+02
 Spin= Alpha
 Occup= 1.000000
  1       0.000000018982
  2       0.000000021947
  3       0.000000041897
  4       0.000000069049
  5       0.000000127276
  6      -0.000000035222
  7      -0.000000157491
  8      -0.000000420481
  9       0.000000244017
 10      -0.000000617598
 11       0.000001115470
 12      -0.000001830229
 13       0.000003018729
 14      -0.000004443671
 15       0.000004687069
 16      -0.000003068874
 17      -0.000000007684
 18       0.000000069910
 19      -0.290125179768
 20       0.218103648660
 21       0.009514027211
 22      -0.383144956202
 23       0.288031998934
 24       0.012564432709
 25      -0.238705038841
 26       0.179448102826
 27       0.007827782178
 28      -0.010720819261
 29       0.008059575525
 30       0.000351601801
 31      -0.004608403913
 32       0.003464076462
 33       0.000151026562
 34       0.003157342105
 35      -0.002372874382
 36      -0.000103334070
 37      -0.001927504864
 38       0.001447773976
 39       0.000062837324
 40       0.001216592514
 41      -0.000912491603
 42      -0.000039277925
 43      -0.000784591979
 44       0.000587025740
 45       0.000024902081
 46       0.000519435338
 47      -0.000386885396
 48      -0.000015934156
 49      -0.000186498324
 50       0.000139807775
 51       0.000005997182
 52       0.000055102094
 53      -0.000041401841
 54      -0.000001801642
 55      -0.000000016483
 56      -0.000000512673
 57       0.000000437122
 58      -0.000001299082
 59      -0.000000431086
 60       0.000000016382
 61      -0.000000785267
 62       0.000000606544
 63      -0.000001906206
 64      -0.000000652658
 65      -0.000000056597
 66       0.000003395049
 67      -0.000002686897
 68       0.000008332007
 69       0.000002781719
 70       0.000000138556
 71      -0.000008179915
 72       0.000006471135
 73      -0.000020075398
 74      -0.000006702057
 75      -0.000000274865
 76       0.000017013706
 77      -0.000013465906
 78       0.000041756919
 79       0.000013956857
 80       0.000000402783
 81      -0.000026170180
 82       0.000020717009
 83      -0.000064222320
 84      -0.000021498319
 85      -0.000000705073
 86       0.000031713587
 87      -0.000024984750
 88       0.000077784224
 89       0.000025799352
 90      -0.000000025135
 91       0.000001542678
 92      -0.000001265301
 93       0.000003856554
 94       0.000001220364
 95       0.000000031592
 96      -0.000001382639
 97       0.000001101800
 98      -0.000003411694
 99      -0.000001110779
100      -0.000000057909
101       0.000000329833
102      -0.000000282190
103       0.000000315817
104       0.000000118016
105      -0.000000304156
106      -0.000000852977
107      -0.000001129335
108       0.000016552716
109      -0.000011591592
110      -0.000013954990
111      -0.000005632062
112      -0.000002380876
113      -0.000006881200
114       0.000001261592
115      -0.000019536431
116       0.000013581992
117       0.000017592735
118       0.000006903065
119       0.000002147687
120       0.000006707523
121      -0.000002126501
122       0.000010741350
123      -0.000021353575
124       0.000061026619
125       0.000095640872
126       0.000138165902
127       0.000006706682
128      -0.000014280286
129      -0.000004024845
130      -0.000026418745
131       0.000053234532
132       0.000014612113
133       0.000023372188
134      -0.000046322764
135      -0.000012618821
136      -0.000003470054
137      -0.000001733008
138       0.000003622428
139      -0.000005356968
140      -0.000005332479
141       0.000016929138
142       0.000007991633
143      -0.000016269739
144       0.000023433751
145       0.000026394453
146      -0.000002674453
147       0.000001012145
148      -0.000002658189
149      -0.000002705350
150      -0.000002717358
151      -0.000005049754
152       0.000002458650
153       0.000002085499
154      -0.000010529927
155       0.000020916306
156      -0.000059578073
157      -0.000093305907
158      -0.000135188404
159       0.000015415923
160      -0.000001814989
161       0.000003461352
162      -0.000057566500
163       0.000008155209
164      -0.000012366677
165       0.000050792927
166      -0.000007390638
167       0.000010820546
168       0.000003599659
169      -0.000003533619
170       0.000000474918
171      -0.000007486723
172       0.000001017713
173      -0.000017380600
174       0.000015616765
175      -0.000002233181
176       0.000034265154
177      -0.000006963992
178       0.000002438689
179       0.000003139103
180      -0.000000114911
181      -0.000003438751
182       0.000000510054
183       0.000005649888
184      -0.000000799402
 Sym=     1a
 Ene= -3.43700327487326E+02
 Spin= Alpha
 Occup= 1.000000
  1       0.000000454113
  2       0.000000507433
  3       0.000001070640
  4       0.000001458083
  5       0.000003605309
  6      -0.000002346476
  7      -0.000001749778
  8      -0.000012446569
  9       0.000012491545
 10      -0.000029952372
 11       0.000052768549
 12      -0.000085505269
 13       0.000136296254
 14      -0.000193654996
 15       0.000212161808
 16      -0.000150179663
 17      -0.000005932861
 18       0.000005868613
 19       0.199694459448
 20       0.258738160140
 21       0.158150633351
 22       0.263722644798
 23       0.341697679338
 24       0.208858622512
 25       0.164294427274
 26       0.212871262935
 27       0.130115058288
 28       0.007376944676
 29       0.009558257058
 30       0.005842314953
 31       0.003165992024
 32       0.004101636654
 33       0.002507213328
 34      -0.002159130921
 35      -0.002796585647
 36      -0.001709659247
 37       0.001300162282
 38       0.001682875536
 39       0.001029149680
 40      -0.000791265547
 41      -0.001022360865
 42      -0.000625775588
 43       0.000478470986
 44       0.000616144559
 45       0.000377770081
 46      -0.000283823414
 47      -0.000362837121
 48      -0.000223223566
 49       0.000120084832
 50       0.000155036799
 51       0.000094929402
 52      -0.000037276282
 53      -0.000048266809
 54      -0.000029513727
 55      -0.000000772067
 56       0.000000906203
 57       0.000001259205
 58      -0.000000311047
 59       0.000001042089
 60      -0.000000718932
 61      -0.000000149417
 62      -0.000000154769
 63       0.000000536592
 64      -0.000001488628
 65       0.000003406420
 66      -0.000000830227
 67      -0.000001294945
 68      -0.000001309410
 69       0.000003275951
 70      -0.000008044968
 71       0.000001908693
 72       0.000002981672
 73       0.000003147096
 74      -0.000007873171
 75       0.000016702088
 76      -0.000003938799
 77      -0.000006168258
 78      -0.000006538603
 79       0.000016397935
 80      -0.000026021703
 81       0.000005925851
 82       0.000009360528
 83       0.000010311694
 84      -0.000026041925
 85       0.000030848596
 86      -0.000006469665
 87      -0.000010203679
 88      -0.000012914612
 89       0.000032352207
 90       0.000001096037
 91      -0.000001414958
 92      -0.000001907421
 93       0.000000464864
 94      -0.000001752250
 95      -0.000001196213
 96       0.000000595621
 97       0.000000840936
 98       0.000000238627
 99      -0.000000414105
100      -0.000001716334
101      -0.000000030390
102      -0.000000061867
103      -0.000000858471
104       0.000002713320
105       0.000002390120
106      -0.000000784520
107      -0.000008655770
108      -0.000004399283
109      -0.000004381194
110       0.000001971909
111      -0.000007121575
112      -0.000020814068
113       0.000006846950
114       0.000010916172
115       0.000005403850
116       0.000005348208
117      -0.000002295518
118       0.000008104234
119       0.000024926311
120      -0.000008146640
121      -0.000001145644
122       0.000005783789
123      -0.000011476488
124       0.000032382401
125       0.000048312442
126       0.000073037601
127       0.000005439419
128      -0.000007297047
129      -0.000001517189
130      -0.000017651653
131       0.000027433167
132       0.000006447368
133       0.000017674528
134      -0.000021718021
135      -0.000004132768
136      -0.000002717234
137      -0.000000956432
138       0.000000889594
139      -0.000000688102
140      -0.000005060487
141       0.000011631425
142       0.000004361890
143      -0.000005560176
144       0.000006011018
145       0.000020727775
146      -0.000000796623
147       0.000001907798
148      -0.000002226258
149       0.000000555727
150      -0.000001466509
151      -0.000004002359
152      -0.000002906996
153      -0.000001241224
154       0.000006263966
155      -0.000012420590
156       0.000034953021
157       0.000052243656
158       0.000078969209
159      -0.000009365096
160       0.000002953623
161      -0.000001357482
162       0.000034132166
163      -0.000008487286
164       0.000005861728
165      -0.000028653822
166       0.000010323145
167      -0.000003648532
168      -0.000002961264
169       0.000000992445
170      -0.000000515126
171       0.000003962914
172      -0.000003720868
173       0.000012762847
174      -0.000005958279
175       0.000002017607
176      -0.000018872604
177       0.000013425963
178      -0.000000655548
179      -0.000002978845
180       0.000001201777
181       0.000000331002
182      -0.000001257034
183      -0.000001885110
184       0.000004768875
 Sym=     1a
 Ene= -3.43689463162791E+02
 Spin= Alpha
 Occup= 1.000000
  1      -0.000000002029
  2      -0.000000002206
  3      -0.000000005001
  4      -0.000000005844
  5      -0.000000017895
  6       0.000000015182
  7      -0.000000000340
  8       0.000000063618
  9      -0.000000071761
 10       0.000000178300
 11      -0.000000315238
 12       0.000000510607
 13      -0.000000814226
 14       0.000001157763
 15      -0.000001270771
 16       0.000000903501
 17       0.000000034085
 18      -0.000000034923
 19       0.088222651090
 20       0.131606842526
 21      -0.326709355948
 22       0.116510737096
 23       0.173805831976
 24      -0.431466829484
 25       0.072576538743
 26       0.108266622271
 27      -0.268768076226
 28       0.003253429344
 29       0.004853349810
 30      -0.012048209598
 31       0.001398054264
 32       0.002085508035
 33      -0.005177332921
 34      -0.000951064136
 35      -0.001418654256
 36       0.003522019560
 37       0.000568558121
 38       0.000847959966
 39      -0.002105513146
 40      -0.000339093014
 41      -0.000505512327
 42       0.001255759356
 43       0.000197140161
 44       0.000293641090
 45      -0.000730084547
 46      -0.000108860204
 47      -0.000161865409
 48       0.000403142253
 49       0.000051130880
 50       0.000076213682
 51      -0.000189353804
 52      -0.000016295756
 53      -0.000024303968
 54       0.000060348521
 55      -0.000001342857
 56      -0.000000709758
 57      -0.000000980634
 58      -0.000000274484
 59       0.000000722825
 60       0.000000510948
 61       0.000000274173
 62       0.000000359005
 63       0.000000100176
 64      -0.000000264662
 65       0.000000269138
 66       0.000000149535
 67       0.000000220069
 68       0.000000053897
 69      -0.000000180146
 70      -0.000000482269
 71      -0.000000275378
 72      -0.000000408612
 73      -0.000000094106
 74       0.000000344103
 75       0.000000954478
 76       0.000000546772
 77       0.000000815091
 78       0.000000185847
 79      -0.000000689021
 80      -0.000001270333
 81      -0.000000738909
 82      -0.000001111654
 83      -0.000000246529
 84       0.000000959398
 85       0.000000852985
 86       0.000000536651
 87       0.000000841362
 88       0.000000155396
 89      -0.000000798202
 90       0.000002110805
 91       0.000001137148
 92       0.000001518440
 93       0.000000413499
 94      -0.000001139331
 95      -0.000000608965
 96      -0.000000329970
 97      -0.000000445058
 98      -0.000000118952
 99       0.000000338210
100       0.000002194216
101      -0.000001884609
102      -0.000002883495
103      -0.000000607381
104       0.000001566439
105      -0.000000461340
106       0.000000123906
107       0.000001258439
108      -0.000000074173
109      -0.000000235490
110      -0.000000511298
111       0.000001530614
112      -0.000000779523
113       0.000000219994
114      -0.000002535712
115       0.000000714265
116       0.000001266073
117       0.000000958945
118      -0.000002736804
119       0.000001327827
120      -0.000000358362
121       0.000000010300
122      -0.000000052017
123       0.000000103328
124      -0.000000293349
125      -0.000000446566
126      -0.000000667297
127       0.000000377937
128       0.000000699332
129      -0.000001527316
130      -0.000000680801
131      -0.000001496482
132       0.000002975298
133       0.000001958271
134       0.000003365915
135      -0.000007657088
136       0.000001006867
137      -0.000001320351
138       0.000001924938
139       0.000001222363
140      -0.000000072539
141      -0.000002985877
142       0.000003853753
143      -0.000005615351
144      -0.000003619032
145       0.000000160700
146      -0.000001854606
147      -0.000000891379
148       0.000002378393
149      -0.000001051462
150      -0.000002615569
151       0.000000723115
152      -0.000001730783
153       0.000000003905
154      -0.000000019698
155       0.000000039009
156      -0.000000108721
157      -0.000000155789
158      -0.000000246077
159       0.000000447753
160       0.000000612701
161      -0.000001527929
162      -0.000000922444
163      -0.000001187177
164       0.000002972009
165       0.000002180636
166       0.000003094856
167      -0.000007666398
168       0.000000852286
169       0.000002301704
170      -0.000000633837
171      -0.000000854772
172      -0.000000857979
173      -0.000002502772
174      -0.000006710360
175       0.000001847265
176       0.000002517598
177       0.000002496797
178      -0.000002030429
179       0.000002214424
180      -0.000000007167
181       0.000002549516
182      -0.000001462611
183       0.000001506411
184       0.000001126766
 Sym=     1a
 Ene= -9.01929674516298E+01
 Spin= Alpha
 Occup= 1.000000
  1      -0.017725808194
  2      -0.021496185631
  3      -0.037163598769
  4      -0.075214528068
  5      -0.104601404668
  6      -0.026391289186
  7       0.390827843421
  8       0.685534934195
  9      -0.509674578554
 10      -0.875585530334
 11      -0.019757517388
 12      -0.039241008562
 13       0.026487468218
 14      -0.018138396716
 15       0.012535196086
 16      -0.008152392949
 17       0.002909726787
 18      -0.000733992699
 19      -0.000000379951
 20       0.000000725464
 21       0.000000151230
 22      -0.000000727187
 23       0.000000832910
 24       0.000000081516
 25       0.000002919384
 26       0.000004104733
 27       0.000002469169
 28      -0.000008573435
 29      -0.000016170545
 30      -0.000008808924
 31       0.000020205492
 32       0.000024496647
 33       0.000015658327
 34      -0.000034982182
 35      -0.000047355348
 36      -0.000028974542
 37       0.000063841386
 38       0.000086879623
 39       0.000053046650
 40      -0.000117277296
 41      -0.000160191403
 42      -0.000097679193
 43       0.000199505269
 44       0.000272544674
 45       0.000166175342
 46      -0.000450773598
 47      -0.000619476147
 48      -0.000376970418
 49       0.000075451703
 50       0.000104056715
 51       0.000063249949
 52      -0.000011301738
 53      -0.000015757319
 54      -0.000009544310