[Molden Format]
[Title]
 Molden file created by orca_2mkl for BaseName=/home/nikolayandreadi_2125/_scratch/F1_cc/Tm_F1_cc

[Atoms] AU
Tm   1  69          0.0216487026        -0.5868714584        -1.5279002711 
F    2   9         -1.4839320131         2.7422004902        -0.5744295016 
[GTO]
  1 0
s   6 1.0 
  1319284.9947909999      2612.7927579715
   586348.8865740000      -709.4442498508
   260599.5051440000      1510.6834110105
   115822.0022860000       316.8056665606
    51476.4454610000       886.9370256752
    22878.4202050000       639.6546354182
s   1 1.0 
    10168.1867580000       721.6767731110
s   1 1.0 
     4519.1941150000       392.8310785418
s   1 1.0 
     2008.5307180000       213.8301550254
s   1 1.0 
      892.6803190000       116.3943936408
s   1 1.0 
      396.7468080000        63.3570829114
s   1 1.0 
      176.3319150000        34.4872277653
s   1 1.0 
       78.3697400000        18.7724690374
s   1 1.0 
       34.8309960000        10.2184379542
s   1 1.0 
       15.4804420000         5.5622129217
s   1 1.0 
        6.8801970000         3.0276854053
s   1 1.0 
        3.0578650000         1.6480630530
s   1 1.0 
        1.3590510000         0.8970918436
s   1 1.0 
        0.6040230000         0.4883151508
s   1 1.0 
        0.2684550000         0.2658053482
s   1 1.0 
        0.1193130000         0.1446858022
s   1 1.0 
        0.0530280000         0.0787569752
s   1 1.0 
        0.0235680000         0.0428698673
p   5 1.0 
    18167.9700320000      4276.3190036639
     7267.1880130000      1622.6508988842
     2906.8752050000      2563.2682837476
     1162.7500820000      2427.3733177812
      465.1000330000      2276.3124957386
p   1 1.0 
      186.0400130000       979.3728025536
p   1 1.0 
       74.4160050000       311.5466079219
p   1 1.0 
       29.7664020000        99.1055591708
p   1 1.0 
       11.9065610000        31.5263007686
p   1 1.0 
        4.7626240000        10.0287766222
p   1 1.0 
        1.9050500000         3.1902378345
p   1 1.0 
        0.7620200000         1.0148411070
p   1 1.0 
        0.3048080000         0.3228293707
p   1 1.0 
        0.1219230000         0.1026944890
p   1 1.0 
        0.0487690000         0.0326678010
p   1 1.0 
        0.0195080000         0.0103921647
d   4 1.0 
     1329.8192350000      6851.9549332394
      483.5706310000      6453.4619104032
      175.8438660000      6042.5378437114
       63.9432240000      3305.1590466818
d   1 1.0 
       23.2520810000       701.9049111231
d   1 1.0 
        8.4553020000       119.5215043070
d   1 1.0 
        3.0746550000        20.3523128069
d   1 1.0 
        1.1180570000         3.4656283475
d   1 1.0 
        0.4065660000         0.5901323645
d   1 1.0 
        0.1478420000         0.1004884817
d   1 1.0 
        0.0537610000         0.0171114939
d   1 1.0 
        0.0195490000         0.0029136544
f   4 1.0 
       39.2338200000      2365.3777040161
       13.0779400000       653.8517677584
        4.3593130000        81.3062960040
        1.4531040000         4.7585868412
f   1 1.0 
        0.4843680000         1.1159502330
f   1 1.0 
        0.1614560000         0.0942154234

  2 0
s   6 1.0 
    35479.1004410000         1.9229128581
     5318.4728983000         2.2734773358
     1210.4810975000         3.4747482552
      342.8551814000         5.2879612972
      112.0194318100         7.1666332516
       40.7147402500         7.7556346254
s   1 1.0 
       16.0396781100         5.7122450312
s   1 1.0 
        6.5038186700         2.9025947842
s   1 1.0 
        1.5440477500         0.9872011154
s   1 1.0 
        0.6122345300        -0.4932856223
s   1 1.0 
        0.2402798000         0.2445952611
p   4 1.0 
       80.2339004800         4.2755032106
       18.5940107400         4.7314752302
        5.6867902700         4.0864798013
        1.9511006300         2.2989954518
p   1 1.0 
        0.6697021100         0.8635593126
p   1 1.0 
        0.2165130000         0.2105208234
d   1 1.0 
        3.1070000000        20.7284714039
d   1 1.0 
        0.8550000000         2.1672588463
f   1 1.0 
        1.9170000000        24.6547062912

[5D]
[7F]
[9G]
[MO]
 Sym=     1a
 Ene= -2.18962564354912E+03
 Spin= Alpha
 Occup= 1.000000
  1       0.095749292346
  2       0.104044872901
  3       0.178122096418
  4       0.300853493462
  5       0.333545336334
  6       0.166359818430
  7       0.009002728330
  8       0.003391203010
  9      -0.002466444842
 10       0.001632643658
 11      -0.001094701386
 12       0.000730270690
 13      -0.000479339104
 14       0.000311833221
 15      -0.000199965748
 16       0.000119572444
 17      -0.000049384211
 18       0.000013006041
 19       0.000000082516
 20      -0.000000182331
 21      -0.000000052190
 22      -0.000000094054
 23       0.000000207967
 24       0.000000059563
 25       0.000000099098
 26      -0.000000219095
 27      -0.000000062744
 28      -0.000000170485
 29       0.000000376953
 30       0.000000107958
 31       0.000000289139
 32      -0.000000639323
 33      -0.000000183105
 34      -0.000000486697
 35       0.000001076157
 36       0.000000308218
 37       0.000000850228
 38      -0.000001879982
 39      -0.000000538440
 40      -0.000001435000
 41       0.000003173006
 42       0.000000908772
 43       0.000002302860
 44      -0.000005091980
 45      -0.000001458380
 46      -0.000004848607
 47       0.000010721021
 48       0.000003070579
 49       0.000000868947
 50      -0.000001921376
 51      -0.000000550296
 52      -0.000000129944
 53       0.000000287326
 54       0.000000082292
 55      -0.000000132783
 56       0.000000036034
 57       0.000000144474
 58      -0.000000105177
 59      -0.000000155710
 60       0.000000161136
 61       0.000000002032
 62      -0.000000166563
 63       0.000000162288
 64       0.000000210649
 65      -0.000000220092
 66      -0.000000054236
 67       0.000000217656
 68      -0.000000260640
 69      -0.000000312113
 70       0.000000369483
 71       0.000000136888
 72      -0.000000356618
 73       0.000000472265
 74       0.000000545691
 75      -0.000000665268
 76      -0.000000276310
 77       0.000000636392
 78      -0.000000872930
 79      -0.000000996682
 80       0.000001071041
 81       0.000000456117
 82      -0.000001022395
 83       0.000001413902
 84       0.000001609941
 85      -0.000002864802
 86      -0.000001232554
 87       0.000002732284
 88      -0.000003791377
 89      -0.000004312186
 90       0.000000313059
 91       0.000000133681
 92      -0.000000298771
 93       0.000000413548
 94       0.000000470747
 95      -0.000000011221
 96      -0.000000004388
 97       0.000000010786
 98      -0.000000014517
 99      -0.000000016682
100      -0.000000059285
101       0.000000029134
102      -0.000000064409
103      -0.000000052955
104      -0.000000060198
105      -0.000000119946
106       0.000000036656
107       0.000000305651
108      -0.000000150189
109       0.000000332073
110       0.000000272992
111       0.000000310385
112       0.000000618413
113      -0.000000189003
114      -0.000001025423
115       0.000000503844
116      -0.000001114072
117      -0.000000915823
118      -0.000001041350
119      -0.000002074734
120       0.000000634113
121       0.000000169397
122      -0.000000774013
123       0.000001447250
124      -0.000003895102
125      -0.000007133611
126      -0.000014033067
127      -0.000000318709
128       0.000000704716
129       0.000000201836
130       0.000001140345
131      -0.000002521479
132      -0.000000722170
133      -0.000002689535
134       0.000005946975
135       0.000001703257
136       0.000000156048
137       0.000000067302
138      -0.000000148798
139       0.000000206643
140       0.000000234965
141      -0.000000728241
142      -0.000000314077
143       0.000000694409
144      -0.000000964353
145      -0.000001096530
146       0.000000157601
147      -0.000000077440
148       0.000000171225
149       0.000000140759
150       0.000000160046
151       0.000000318872
152      -0.000000097457
 Sym=     1a
 Ene= -3.74569101817287E+02
 Spin= Alpha
 Occup= 1.000000
  1       0.036563184955
  2       0.043966351828
  3       0.076065728975
  4       0.151609850412
  5       0.202348033350
  6       0.066683323854
  7      -0.489240689700
  8      -0.586166127819
  9      -0.084411127880
 10      -0.004796842024
 11       0.004205291506
 12      -0.002951848497
 13       0.002068137254
 14      -0.001385853256
 15       0.000895395719
 16      -0.000538548763
 17       0.000222958607
 18      -0.000058788207
 19      -0.000000656964
 20       0.000001446377
 21       0.000000412722
 22      -0.000000454657
 23       0.000000996599
 24       0.000000283305
 25      -0.000000782478
 26       0.000001723475
 27       0.000000491979
 28      -0.000000643150
 29       0.000001420590
 30       0.000000406497
 31      -0.000000627151
 32       0.000001386813
 33       0.000000397214
 34       0.000001900058
 35      -0.000004201359
 36      -0.000001203310
 37      -0.000003654025
 38       0.000008079654
 39       0.000002314082
 40       0.000006317468
 41      -0.000013968886
 42      -0.000004000789
 43      -0.000010351258
 44       0.000022888238
 45       0.000006555361
 46       0.000021853175
 47      -0.000048320757
 48      -0.000013839422
 49      -0.000003914980
 50       0.000008656628
 51       0.000002479322
 52       0.000000585026
 53      -0.000001293583
 54      -0.000000370492
 55       0.000017234198
 56      -0.000005493541
 57      -0.000018907766
 58       0.000013032468
 59       0.000019822910
 60       0.000002124294
 61      -0.000000649833
 62      -0.000002325166
 63       0.000001626890
 64       0.000002456397
 65       0.000000109218
 66       0.000000328708
 67      -0.000000050281
 68       0.000000357932
 69       0.000000297915
 70      -0.000001145555
 71      -0.000000632200
 72       0.000001065925
 73      -0.000001621618
 74      -0.000001790356
 75       0.000002840014
 76       0.000001260803
 77      -0.000002701210
 78       0.000003788056
 79       0.000004293313
 80      -0.000004743359
 81      -0.000002073700
 82       0.000004517653
 83      -0.000006302459
 84      -0.000007155444
 85       0.000012878715
 86       0.000005567851
 87      -0.000012277834
 88       0.000017064512
 89       0.000019398183
 90      -0.000001398770
 91      -0.000000609433
 92       0.000001332609
 93      -0.000001856956
 94      -0.000002109084
 95       0.000000045391
 96       0.000000021687
 97      -0.000000042879
 98       0.000000061707
 99       0.000000069347
100       0.000000279739
101      -0.000000136969
102       0.000000304061
103       0.000000249197
104       0.000000284992
105       0.000000566588
106      -0.000000173610
107      -0.000001407622
108       0.000000691312
109      -0.000001529419
110      -0.000001256720
111      -0.000001430119
112      -0.000002848465
113       0.000000870882
114       0.000004640154
115      -0.000002279867
116       0.000005041327
117       0.000004144088
118       0.000004712389
119       0.000009388517
120      -0.000002869543
121      -0.000000646790
122       0.000003199926
123      -0.000006263509
124       0.000017355364
125       0.000031858616
126       0.000063171561
127       0.000001451041
128      -0.000003208475
129      -0.000000918931
130      -0.000005103839
131       0.000011285376
132       0.000003232214
133       0.000012120122
134      -0.000026799467
135      -0.000007675565
136      -0.000000719368
137      -0.000000310187
138       0.000000685961
139      -0.000000952555
140      -0.000001083140
141       0.000003304077
142       0.000001424724
143      -0.000003150631
144       0.000004375133
145       0.000004974902
146      -0.000000717649
147       0.000000352607
148      -0.000000779694
149      -0.000000640929
150      -0.000000728818
151      -0.000001452031
152       0.000000443803
 Sym=     1a
 Ene= -3.31634699731078E+02
 Spin= Alpha
 Occup= 1.000000
  1       0.000000217802
  2       0.000000299357
  3       0.000000323268
  4       0.000001313107
  5       0.000000134487
  6       0.000003307289
  7      -0.000008416717
  8       0.000001611722
  9      -0.000009712653
 10       0.000028130584
 11      -0.000050265425
 12       0.000080363695
 13      -0.000125676115
 14       0.000173346811
 15      -0.000184525421
 16       0.000124329957
 17       0.000010022632
 18      -0.000006518777
 19       0.143892353800
 20      -0.318859190752
 21      -0.091492146002
 22       0.190845339478
 23      -0.422904967483
 24      -0.121346614836
 25       0.119290584048
 26      -0.264342739624
 27      -0.075849419389
 28       0.005489320674
 29      -0.012164107294
 30      -0.003490321809
 31       0.002282885701
 32      -0.005058749959
 33      -0.001451530758
 34      -0.001561204740
 35       0.003459512958
 36       0.000992646565
 37       0.000944874955
 38      -0.002093713002
 39      -0.000600739805
 40      -0.000583327862
 41       0.001292478651
 42       0.000370821887
 43       0.000361516782
 44      -0.000800907927
 45      -0.000229761157
 46      -0.000222903535
 47       0.000493723353
 48       0.000141613122
 49       0.000088811040
 50      -0.000196779756
 51      -0.000056457908
 52      -0.000027059782
 53       0.000059962270
 54       0.000017205077
 55      -0.000000282300
 56      -0.000000079624
 57       0.000000276394
 58      -0.000000341126
 59      -0.000000405451
 60       0.000000334531
 61       0.000000167239
 62      -0.000000313931
 63       0.000000459762
 64       0.000000514871
 65      -0.000003136020
 66      -0.000001324379
 67       0.000002995925
 68      -0.000004131682
 69      -0.000004708560
 70       0.000007064048
 71       0.000003049919
 72      -0.000006735617
 73       0.000009357243
 74       0.000010637924
 75      -0.000014467184
 76      -0.000006236514
 77       0.000013796568
 78      -0.000019156426
 79      -0.000021781818
 80       0.000021723094
 81       0.000009368042
 82      -0.000020715356
 83       0.000028766880
 84       0.000032708092
 85      -0.000025613550
 86      -0.000011046119
 87       0.000024424993
 88      -0.000033918817
 89      -0.000038566154
 90      -0.000001818417
 91      -0.000000784577
 92       0.000001735964
 93      -0.000002410189
 94      -0.000002737324
 95       0.000001287251
 96       0.000000555247
 97      -0.000001228042
 98       0.000001705236
 99       0.000001938030
100       0.000000348749
101      -0.000000678027
102       0.000000184564
103       0.000001046385
104      -0.000000670958
105      -0.000000016174
106       0.000000436763
107       0.000008419179
108      -0.000003984149
109       0.000009204401
110       0.000007299377
111       0.000008857077
112       0.000017249558
113      -0.000005402960
114      -0.000010921426
115       0.000005306402
116      -0.000011886459
117      -0.000009669892
118      -0.000011209150
119      -0.000022178296
120       0.000006830924
121       0.000002466952
122      -0.000012401114
123       0.000024273537
124      -0.000064292298
125      -0.000092755853
126      -0.000134845231
127      -0.000007469851
128       0.000016514207
129       0.000004729110
130       0.000024782223
131      -0.000054792359
132      -0.000015691723
133      -0.000020378061
134       0.000045043620
135       0.000012897063
136       0.000005015183
137       0.000002160715
138      -0.000004780745
139       0.000006637764
140       0.000007551194
141      -0.000019984969
142      -0.000008611185
143       0.000019052923
144      -0.000026453711
145      -0.000030090190
146       0.000003260917
147      -0.000001602868
148       0.000003545132
149       0.000002910101
150       0.000003314010
151       0.000006602109
152      -0.000002015604
 Sym=     1a
 Ene= -3.31627317515248E+02
 Spin= Alpha
 Occup= 1.000000
  1       0.000000000576
  2       0.000000000730
  3       0.000000001079
  4       0.000000002787
  5       0.000000002203
  6       0.000000003730
  7      -0.000000013084
  8      -0.000000004903
  9      -0.000000009142
 10       0.000000026983
 11      -0.000000047835
 12       0.000000076667
 13      -0.000000119943
 14       0.000000165414
 15      -0.000000176219
 16       0.000000118918
 17       0.000000009510
 18      -0.000000006218
 19       0.293286505668
 20       0.075681519475
 21       0.197502599797
 22       0.388991691851
 23       0.100377898176
 24       0.261951604747
 25       0.243125819695
 26       0.062737736052
 27       0.163723800783
 28       0.011178294962
 29       0.002884524215
 30       0.007527598996
 31       0.004644774510
 32       0.001198554800
 33       0.003127839484
 34      -0.003162578932
 35      -0.000816068128
 36      -0.002129705390
 37       0.001888913940
 38       0.000487383893
 39       0.001271993956
 40      -0.001125699311
 41      -0.000290408865
 42      -0.000758020189
 43       0.000653423736
 44       0.000168516784
 45       0.000439972019
 46      -0.000360731694
 47      -0.000092976860
 48      -0.000242863492
 49       0.000171841134
 50       0.000044332207
 51       0.000115714149
 52      -0.000054722338
 53      -0.000014120359
 54      -0.000036850383
 55      -0.000000103644
 56       0.000000006630
 57      -0.000000230612
 58       0.000000220144
 59      -0.000000272724
 60      -0.000000254042
 61       0.000000014052
 62      -0.000000569547
 63       0.000000541572
 64      -0.000000671116
 65      -0.000000115979
 66       0.000000004964
 67      -0.000000250021
 68       0.000000236500
 69      -0.000000302805
 70       0.000000139569
 71      -0.000000004479
 72       0.000000290801
 73      -0.000000273746
 74       0.000000360800
 75      -0.000000324372
 76       0.000000011176
 77      -0.000000681852
 78       0.000000642566
 79      -0.000000840725
 80       0.000000454104
 81      -0.000000014951
 82       0.000000950075
 83      -0.000000894699
 84       0.000001175383
 85      -0.000000453377
 86       0.000000013073
 87      -0.000000936428
 88       0.000000880146
 89      -0.000001169193
 90      -0.000000698061
 91       0.000000037622
 92      -0.000001556679
 93       0.000001479389
 94      -0.000001841033
 95       0.000000203579
 96      -0.000000010620
 97       0.000000451672
 98      -0.000000428942
 99       0.000000536089
100      -0.000001719872
101      -0.000000442528
102       0.000001096687
103      -0.000000246854
104       0.000000611277
105       0.000000480046
106       0.000001709077
107       0.000000088287
108      -0.000000397167
109       0.000000192269
110      -0.000000815516
111      -0.000000273577
112       0.000000525585
113       0.000000775814
114       0.000000584877
115       0.000000913243
116      -0.000000818910
117       0.000001598113
118       0.000000239950
119      -0.000001157024
120      -0.000002154980
121       0.000000002353
122      -0.000000011829
123       0.000000023156
124      -0.000000061352
125      -0.000000088580
126      -0.000000128902
127       0.000001242664
128       0.000000339708
129       0.000000846903
130      -0.000002238199
131      -0.000000638582
132      -0.000001539523
133       0.000006909799
134       0.000001839248
135       0.000004682881
136      -0.000000613314
137       0.000000036118
138      -0.000001387764
139       0.000001321500
140      -0.000001624659
141       0.000001662221
142      -0.000000100857
143       0.000003780630
144      -0.000003602632
145       0.000004410117
146       0.000000941702
147       0.000001132661
148      -0.000001101119
149       0.000001937287
150       0.000000216098
151      -0.000001402317
152      -0.000002790971
 Sym=     1a
 Ene= -3.31622431989552E+02
 Spin= Alpha
 Occup= 1.000000
  1       0.000000000001
  2       0.000000000001
  3       0.000000000002
  4       0.000000000005
  5       0.000000000005
  6       0.000000000007
  7      -0.000000000025
  8      -0.000000000011
  9      -0.000000000016
 10       0.000000000047
 11      -0.000000000084
 12       0.000000000133
 13      -0.000000000209
 14       0.000000000290
 15      -0.000000000309
 16       0.000000000209
 17       0.000000000018
 18      -0.000000000011
 19      -0.155015793997
 20      -0.152806823437
 21       0.288749075642
 22      -0.205601156231
 23      -0.202671345723
 24       0.382974807158
 25      -0.128497832759
 26      -0.126666742376
 27       0.239353871463
 28      -0.005902860238
 29      -0.005818744639
 30       0.010995301790
 31      -0.002455848798
 32      -0.002420853052
 33       0.004574527880
 34       0.001671973769
 35       0.001648148249
 36      -0.003114398032
 37      -0.000998604656
 38      -0.000984374671
 39       0.001860108380
 40       0.000595154498
 41       0.000586673734
 42      -0.001108598788
 43      -0.000345445509
 44      -0.000340523144
 45       0.000643464012
 46       0.000190694445
 47       0.000187977306
 48      -0.000355208062
 49      -0.000090855387
 50      -0.000089560726
 51       0.000169237016
 52       0.000028933109
 53       0.000028520814
 54      -0.000053893918
 55      -0.000000138286
 56       0.000000170544
 57      -0.000000238149
 58      -0.000000216935
 59       0.000000082963
 60      -0.000000396553
 61       0.000000484238
 62      -0.000000678024
 63      -0.000000616907
 64       0.000000237832
 65      -0.000000164748
 66       0.000000201261
 67      -0.000000281765
 68      -0.000000256393
 69       0.000000098797
 70       0.000000186926
 71      -0.000000228440
 72       0.000000319777
 73       0.000000291010
 74      -0.000000112086
 75      -0.000000451480
 76       0.000000551521
 77      -0.000000772127
 78      -0.000000702620
 79       0.000000270726
 80       0.000000630037
 81      -0.000000769622
 82       0.000001077473
 83       0.000000980482
 84      -0.000000377790
 85      -0.000000622804
 86       0.000000760767
 87      -0.000001065077
 88      -0.000000969216
 89       0.000000373438
 90      -0.000001013771
 91       0.000001238433
 92      -0.000001733842
 93      -0.000001577639
 94       0.000000608007
 95       0.000000294650
 96      -0.000000359945
 97       0.000000503934
 98       0.000000458536
 99      -0.000000176713
100      -0.000000710849
101       0.000001003991
102       0.000002058580
103      -0.000000305349
104      -0.000002061510
105       0.000000302272
106      -0.000001168011
107      -0.000000420507
108      -0.000000543991
109       0.000000365436
110      -0.000000238140
111      -0.000000385580
112      -0.000000031505
113      -0.000000686151
114       0.000001071847
115       0.000000558743
116      -0.000001551538
117       0.000000565169
118       0.000001589507
119      -0.000000072688
120       0.000001752426
121       0.000000000004
122      -0.000000000021
123       0.000000000041
124      -0.000000000108
125      -0.000000000156
126      -0.000000000228
127      -0.000000657808
128      -0.000000648390
129       0.000001225286
130       0.000001189137
131       0.000001172051
132      -0.000002214959
133      -0.000003646717
134      -0.000003594622
135       0.000006792717
136      -0.000000900594
137       0.000001100203
138      -0.000001540317
139      -0.000001401525
140       0.000000540153
141       0.000002450692
142      -0.000002993888
143       0.000004191533
144       0.000003813829
145      -0.000001469884
146       0.000001368079
147       0.000000525126
148      -0.000002121113
149       0.000000711878
150       0.000002166584
151      -0.000000127467
152       0.000002237488
 Sym=     1a
 Ene= -8.63451504768004E+01
 Spin= Alpha
 Occup= 1.000000
  1      -0.017267084732
  2      -0.021063241431
  3      -0.036732671411
  4      -0.074608777508
  5      -0.104810817680
  6      -0.028747410910
  7       0.384865230469
  8       0.688243620476
  9      -0.493125378039
 10      -0.883921585060
 11      -0.024523384798
 12      -0.038475197809
 13       0.025716052419
 14      -0.017251803507
 15       0.011309923429
 16      -0.006826691328
 17       0.002835258632
 18      -0.000748919062
 19       0.000011942035
 20      -0.000026349221
 21      -0.000007532830
 22       0.000017679107
 23      -0.000039008601
 24      -0.000011152183
 25       0.000000415931
 26      -0.000000910161
 27      -0.000000258350
 28      -0.000038918632
 29       0.000085850324
 30       0.000024538181
 31      -0.000039629330
 32       0.000087481342
 33       0.000025019861
 34       0.000029265311
 35      -0.000064695133
 36      -0.000018525503
 37      -0.000046931433
 38       0.000103762664
 39       0.000029715953
 40       0.000081095812
 41      -0.000179310346
 42      -0.000051354575
 43      -0.000131137611
 44       0.000289962597
 45       0.000083046706
 46       0.000277371646
 47      -0.000613310066
 48      -0.000175656145
 49      -0.000050029925
 50       0.000110622962
 51       0.000031683002
 52       0.000007496182
 53      -0.000016574922
 54      -0.000004747107
 55       0.000270870015
 56      -0.000083488449
 57      -0.000296624518
 58       0.000206989870
 59       0.000312910541
 60       0.000444037796
 61      -0.000140315978
 62      -0.000486913697
 63       0.000336699563
 64       0.000511319977
 65       0.000128206646
 66      -0.000034931372
 67      -0.000139517797
 68       0.000101442374
 69       0.000150278763
 70      -0.000035925620
 71      -0.000002134998
 72       0.000036812468
 73      -0.000037455226
 74      -0.000047762414
 75       0.000043398896
 76       0.000012715849
 77      -0.000042530800
 78       0.000052924273
 79       0.000062502414
 80      -0.000064272601
 81      -0.000024516033
 82       0.000061899610
 83      -0.000082684822
 84      -0.000095258423
 85       0.000165856554
 86       0.000069936024
 87      -0.000158456641
 88       0.000218423130
 89       0.000248978202
 90      -0.000018908445
 91      -0.000007423199
 92       0.000018169911
 93      -0.000024484733
 94      -0.000028124152
 95       0.000000952565
 96       0.000000161749
 97      -0.000000955938
 98       0.000001072732
 99       0.000001316260
100       0.000004624778
101      -0.000002435555
102       0.000004964487
103       0.000004364106
104       0.000004370075
105       0.000009129881
106      -0.000002649717
107      -0.000017540105
108       0.000008669156
109      -0.000019037758
110      -0.000015738120
111      -0.000017710911
112      -0.000035418045
113       0.000010781243
114       0.000059050395
115      -0.000029033676
116       0.000064148225
117       0.000052766460
118       0.000059929182
119       0.000119449617
120      -0.000036491670
121      -0.000005170565
122       0.000032278935
123      -0.000069950177
124       0.000211228999
125       0.000395269570
126       0.000796498718
127       0.000018079355
128      -0.000039976169
129      -0.000011449449
130      -0.000064672533
131       0.000143000908
132       0.000040956498
133       0.000153371458
134      -0.000339127329
135      -0.000097128398
136      -0.000009189291
137      -0.000003967185
138       0.000008761566
139      -0.000012171657
140      -0.000013838457
141       0.000042431561
142       0.000018314815
143      -0.000040457379
144       0.000056199986
145       0.000063897296
146      -0.000009110234
147       0.000004477637
148      -0.000009897442
149      -0.000008138260
150      -0.000009249276
151      -0.000018431090
152       0.000005632018
 Sym=     1a
 Ene= -7.30262282354522E+01
 Spin= Alpha
 Occup= 1.000000
  1      -0.000002769048
  2      -0.000003309980
  3      -0.000006153893
  4      -0.000011181830
  5      -0.000018810443
  6       0.000000057280
  7       0.000051021124
  8       0.000146965399
  9      -0.000172980456
 10       0.000013692186
 11      -0.000238987023
 12       0.000398533164
 13      -0.000677877917
 14       0.000966717699
 15      -0.001089637421
 16       0.000808194636
 17       0.000044597211
 18      -0.000038970731
 19      -0.077726839344
 20       0.172234288511
 21       0.049418983916
 22      -0.117033994399
 23       0.259334696961
 24       0.074410601380
 25       0.003750951401
 26      -0.008311675209
 27      -0.002384852399
 28       0.291083311443
 29      -0.645009246244
 30      -0.185071761648
 31       0.137398235050
 32      -0.304459588074
 33      -0.087358217146
 34      -0.006996910796
 35       0.015504139388
 36       0.004448521411
 37       0.006311935738
 38      -0.013986089728
 39      -0.004012895921
 40      -0.003723679664
 41       0.008250444727
 42       0.002367089070
 43       0.002288505246
 44      -0.005069956162
 45      -0.001454442918
 46      -0.001430891740
 47       0.003169285365
 48       0.000909014633
 49       0.000578249100
 50      -0.001281184653
 51      -0.000367571602
 52      -0.000175820846
 53       0.000389590816
 54       0.000111782601
 55      -0.000027630812
 56      -0.000012872800
 57       0.000026168452
 58      -0.000037317479
 59      -0.000042055793
 60      -0.000019473145
 61      -0.000009653770
 62       0.000018333130
 63      -0.000026742122
 64      -0.000029914164
 65      -0.000018211634
 66      -0.000008402552
 67       0.000017255095
 68      -0.000024526231
 69      -0.000027683836
 70       0.000042019188
 71       0.000018149326
 72      -0.000040064503
 73       0.000055665808
 74       0.000063281114
 75      -0.000079182860
 76      -0.000034292571
 77       0.000075479982
 78      -0.000104966395
 79      -0.000119293805
 80       0.000121990804
 81       0.000052657555
 82      -0.000116318084
 83       0.000161580194
 84       0.000183704517
 85      -0.000166706577
 86      -0.000071947263
 87       0.000158952698
 88      -0.000220794592
 89      -0.000251037513
 90      -0.000004718535
 91      -0.000002020889
 92       0.000004505613
 93      -0.000006241056
 94      -0.000007096623
 95       0.000006495549
 96       0.000002796984
 97      -0.000006195763
 98       0.000008599259
 99       0.000009777936
100       0.000155765246
101      -0.000115867451