[Molden Format]
[Title]
 Molden file created by orca_2mkl for BaseName=/home/nikolayandreadi_2125/_scratch/F1_cc/Er_F1_cc

[Atoms] AU
Er   1  68          0.0256757090        -0.5957739582        -1.5304495116 
F    2   9         -1.4879590195         2.7511029900        -0.5718802610 
[GTO]
  1 0
s   6 1.0 
  1280982.1879360001      2520.6148364459
   569325.4168600000      -681.3957563930
   253033.5186050000      1460.6740705580
   112459.3416020000       312.1436294738
    49981.9296010000       863.9077130156
    22214.1909340000       629.2071075609
s   1 1.0 
     9872.9737480000       705.9047087998
s   1 1.0 
     4387.9883330000       384.2458541670
s   1 1.0 
     1950.2170370000       209.1569507843
s   1 1.0 
      866.7631270000       113.8506234070
s   1 1.0 
      385.2280570000        61.9724298993
s   1 1.0 
      171.2124700000        33.7335181159
s   1 1.0 
       76.0944310000        18.3622014494
s   1 1.0 
       33.8197470000         9.9951164432
s   1 1.0 
       15.0309990000         5.4406523584
s   1 1.0 
        6.6804440000         2.9615160324
s   1 1.0 
        2.9690860000         1.6120450527
s   1 1.0 
        1.3195940000         0.8774862934
s   1 1.0 
        0.5864860000         0.4776429032
s   1 1.0 
        0.2606610000         0.2599962805
s   1 1.0 
        0.1158490000         0.1415237440
s   1 1.0 
        0.0514880000         0.0770352700
s   1 1.0 
        0.0228840000         0.0419333005
p   5 1.0 
    17602.8164910000      4022.4508342837
     7041.1265960000      1545.5382950479
     2816.4506390000      2442.5227289582
     1126.5802550000      2329.4326719729
      450.6321020000      2190.8967379529
p   1 1.0 
      180.2528410000       941.4401934414
p   1 1.0 
       72.1011360000       299.4799294147
p   1 1.0 
       28.8404550000        95.2670511641
p   1 1.0 
       11.5361820000        30.3052388827
p   1 1.0 
        4.6144730000         9.6403482870
p   1 1.0 
        1.8457890000         3.0666743077
p   1 1.0 
        0.7383160000         0.9755351853
p   1 1.0 
        0.2953260000         0.3103253057
p   1 1.0 
        0.1181310000         0.0987176796
p   1 1.0 
        0.0472520000         0.0314025801
p   1 1.0 
        0.0189010000         0.0099895532
d   4 1.0 
     1280.6903600000      6403.7653961462
      465.7055860000      6055.6208623721
      169.3474860000      5668.4317575873
       61.5809040000      3092.7344183634
d   1 1.0 
       22.3930560000       657.1559952900
d   1 1.0 
        8.1429290000       111.9015797720
d   1 1.0 
        2.9610650000        19.0547818108
d   1 1.0 
        1.0767510000         3.2446796886
d   1 1.0 
        0.3915460000         0.5525097787
d   1 1.0 
        0.1423800000         0.0940818424
d   1 1.0 
        0.0517750000         0.0160206551
d   1 1.0 
        0.0188270000         0.0027279540
f   4 1.0 
       37.3757410000      2115.7106758334
       12.4585800000       583.6684471563
        4.1528600000        72.9133455825
        1.3842870000         4.2858523755
f   1 1.0 
        0.4614290000         1.0005437237
f   1 1.0 
        0.1538100000         0.0844725037

  2 0
s   6 1.0 
    35479.1004410000         1.9229128581
     5318.4728983000         2.2734773358
     1210.4810975000         3.4747482552
      342.8551814000         5.2879612972
      112.0194318100         7.1666332516
       40.7147402500         7.7556346254
s   1 1.0 
       16.0396781100         5.7122450312
s   1 1.0 
        6.5038186700         2.9025947842
s   1 1.0 
        1.5440477500         0.9872011154
s   1 1.0 
        0.6122345300        -0.4932856223
s   1 1.0 
        0.2402798000         0.2445952611
p   4 1.0 
       80.2339004800         4.2755032106
       18.5940107400         4.7314752302
        5.6867902700         4.0864798013
        1.9511006300         2.2989954518
p   1 1.0 
        0.6697021100         0.8635593126
p   1 1.0 
        0.2165130000         0.2105208234
d   1 1.0 
        3.1070000000        20.7284714039
d   1 1.0 
        0.8550000000         2.1672588463
f   1 1.0 
        1.9170000000        24.6547062912

[5D]
[7F]
[9G]
[MO]
 Sym=     1a
 Ene= -2.11952346924035E+03
 Spin= Alpha
 Occup= 1.000000
  1       0.093919370033
  2       0.102779904288
  3       0.177281963068
  4       0.300656160899
  5       0.335099522349
  6       0.167593124311
  7       0.009241380561
  8       0.003355592556
  9      -0.002441140523
 10       0.001614644815
 11      -0.001083068472
 12       0.000722661324
 13      -0.000474228681
 14       0.000308326796
 15      -0.000197345683
 16       0.000117700489
 17      -0.000049012105
 18       0.000012954498
 19       0.000000088604
 20      -0.000000195916
 21      -0.000000056113
 22      -0.000000096167
 23       0.000000212638
 24       0.000000060902
 25       0.000000097915
 26      -0.000000216503
 27      -0.000000062009
 28      -0.000000166611
 29       0.000000368402
 30       0.000000105513
 31       0.000000280339
 32      -0.000000619872
 33      -0.000000177536
 34      -0.000000470454
 35       0.000001040246
 36       0.000000297934
 37       0.000000823205
 38      -0.000001820232
 39      -0.000000521327
 40      -0.000001386672
 41       0.000003066143
 42       0.000000878165
 43       0.000002181194
 44      -0.000004822953
 45      -0.000001381328
 46      -0.000004546388
 47       0.000010052756
 48       0.000002879180
 49       0.000000846048
 50      -0.000001870741
 51      -0.000000535793
 52      -0.000000139043
 53       0.000000307446
 54       0.000000088055
 55      -0.000000122129
 56      -0.000000025387
 57       0.000000120696
 58      -0.000000139203
 59      -0.000000168769
 60       0.000000152559
 61       0.000000046124
 62      -0.000000148529
 63       0.000000185784
 64       0.000000218808
 65      -0.000000212087
 66      -0.000000079556
 67       0.000000204085
 68      -0.000000271016
 69      -0.000000312741
 70       0.000000359728
 71       0.000000148576
 72      -0.000000344037
 73       0.000000470939
 74       0.000000538012
 75      -0.000000649657
 76      -0.000000277072
 77       0.000000619960
 78      -0.000000857722
 79      -0.000000976481
 80       0.000001025028
 81       0.000000440354
 82      -0.000000977676
 83       0.000001355945
 84       0.000001542458
 85      -0.000002706874
 86      -0.000001166486
 87       0.000002581266
 88      -0.000003583731
 89      -0.000004075293
 90       0.000000320341
 91       0.000000137759
 92      -0.000000305521
 93       0.000000423875
 94       0.000000482126
 95      -0.000000025941
 96      -0.000000011055
 97       0.000000024756
 98      -0.000000034242
 99      -0.000000038986
100      -0.000000059588
101       0.000000029284
102      -0.000000064738
103      -0.000000053226
104      -0.000000060503
105      -0.000000120556
106       0.000000036842
107       0.000000300925
108      -0.000000147870
109       0.000000326937
110       0.000000268773
111       0.000000305580
112       0.000000608846
113      -0.000000186077
114      -0.000000978200
115       0.000000480643
116      -0.000001062768
117      -0.000000873647
118      -0.000000993393
119      -0.000001979190
120       0.000000604908
121       0.000000166533
122      -0.000000761748
123       0.000001426052
124      -0.000003868098
125      -0.000007116948
126      -0.000013433671
127      -0.000000317524
128       0.000000702093
129       0.000000201084
130       0.000001180097
131      -0.000002609374
132      -0.000000747343
133      -0.000002481690
134       0.000005487394
135       0.000001571629
136       0.000000151867
137       0.000000065493
138      -0.000000144812
139       0.000000201102
140       0.000000228667
141      -0.000000725602
142      -0.000000312918
143       0.000000691896
144      -0.000000960843
145      -0.000001092548
146       0.000000136267
147      -0.000000066956
148       0.000000148048
149       0.000000121704
150       0.000000138383
151       0.000000275709
152      -0.000000084265
 Sym=     1a
 Ene= -3.61120354822688E+02
 Spin= Alpha
 Occup= 1.000000
  1       0.035701430524
  2       0.043196790587
  3       0.075352209669
  4       0.150801425921
  5       0.203042362465
  6       0.070367045678
  7      -0.485108832409
  8      -0.589843782734
  9      -0.087120197576
 10      -0.004655118622
 11       0.004088893052
 12      -0.002875598650
 13       0.002020863452
 14      -0.001355072029
 15       0.000874017214
 16      -0.000524425158
 17       0.000218924461
 18      -0.000057934389
 19      -0.000000733368
 20       0.000001621550
 21       0.000000464472
 22      -0.000000571198
 23       0.000001262957
 24       0.000000361784
 25      -0.000000811656
 26       0.000001794618
 27       0.000000514063
 28      -0.000000742590
 29       0.000001641968
 30       0.000000470294
 31      -0.000000548819
 32       0.000001213509
 33       0.000000347557
 34       0.000001803415
 35      -0.000003987620
 36      -0.000001142078
 37      -0.000003491918
 38       0.000007721157
 39       0.000002211392
 40       0.000006033941
 41      -0.000013341961
 42      -0.000003821231
 43      -0.000009701246
 44       0.000021450932
 45       0.000006143699
 46       0.000020268530
 47      -0.000044816808
 48      -0.000012835851
 49      -0.000003770685
 50       0.000008337559
 51       0.000002387936
 52       0.000000619502
 53      -0.000001369813
 54      -0.000000392324
 55       0.000016049297
 56       0.000003100002
 57      -0.000015897679
 58       0.000018098117
 59       0.000022047458
 60       0.000002031584
 61       0.000000391516
 62      -0.000002012569
 63       0.000002290215
 64       0.000002790405
 65       0.000000089863
 66       0.000000131209
 67      -0.000000071306
 68       0.000000195300
 69       0.000000186533
 70      -0.000001095799
 71      -0.000000517509
 72       0.000001037905
 73      -0.000001488150
 74      -0.000001674859
 75       0.000002745647
 76       0.000001196781
 77      -0.000002616125
 78       0.000003646275
 79       0.000004141191
 80      -0.000004493372
 81      -0.000001947198
 82       0.000004283178
 83      -0.000005957897
 84      -0.000006770939
 85       0.000012035947
 86       0.000005195103
 87      -0.000011476136
 88       0.000015941769
 89       0.000018125190
 90      -0.000001416948
 91      -0.000000613140
 92       0.000001350804
 93      -0.000001878037
 94      -0.000002134665
 95       0.000000110961
 96       0.000000048560
 97      -0.000000105696
 98       0.000000147519
 99       0.000000167467
100       0.000000274986
101      -0.000000133189
102       0.000000299444
103       0.000000242931
104       0.000000283199
105       0.000000559468
106      -0.000000172643
107      -0.000001372713
108       0.000000673672
109      -0.000001491678
110      -0.000001224865
111      -0.000001395705
112      -0.000002778718
113       0.000000849971
114       0.000004379157
115      -0.000002151436
116       0.000004757848
117       0.000003910711
118       0.000004447751
119       0.000008860794
120      -0.000002708404
121      -0.000000626088
122       0.000003107703
123      -0.000006099946
124       0.000017049052
125       0.000031431821
126       0.000059803927
127       0.000001431787
128      -0.000003165900
129      -0.000000906736
130      -0.000005226884
131       0.000011557438
132       0.000003310132
133       0.000011059945
134      -0.000024455224
135      -0.000007004149
136      -0.000000694394
137      -0.000000299450
138       0.000000662139
139      -0.000000919509
140      -0.000001045552
141       0.000003260649
142       0.000001406103
143      -0.000003109192
144       0.000004317700
145       0.000004909561
146      -0.000000616937
147       0.000000303121
148      -0.000000670277
149      -0.000000550977
150      -0.000000626546
151      -0.000001248269
152       0.000000381526
 Sym=     1a
 Ene= -3.20202512790197E+02
 Spin= Alpha
 Occup= 1.000000
  1       0.000000234810
  2       0.000000320765
  3       0.000000369163
  4       0.000001393059
  5       0.000000284461
  6       0.000003323553
  7      -0.000008475428
  8       0.000000620997
  9      -0.000009030326
 10       0.000027363811
 11      -0.000048939000
 12       0.000078283968
 13      -0.000122752445
 14       0.000168637333
 15      -0.000171958050
 16       0.000104541516
 17       0.000010577787
 18      -0.000005726629
 19       0.143573648181
 20      -0.317495561681
 21      -0.090908617865
 22       0.191218701965
 23      -0.422856770630
 24      -0.121076730376
 25       0.119929675951
 26      -0.265209809088
 27      -0.075937619623
 28       0.005662919282
 29      -0.012522853896
 30      -0.003585672816
 31       0.002274060590
 32      -0.005028805668
 33      -0.001439900611
 34      -0.001557245901
 35       0.003443656570
 36       0.000986025121
 37       0.000942075212
 38      -0.002083279966
 39      -0.000596509407
 40      -0.000581777955
 41       0.001286523755
 42       0.000368376098
 43       0.000359667338
 44      -0.000795351299
 45      -0.000227740014
 46      -0.000215833879
 47       0.000477281352
 48       0.000136666818
 49       0.000087442165
 50      -0.000193366901
 51      -0.000055367377
 52      -0.000026906738
 53       0.000059500932
 54       0.000017036944
 55      -0.000000288382
 56      -0.000000098643
 57       0.000000279025
 58      -0.000000360683
 59      -0.000000420024
 60       0.000000313914
 61       0.000000153489
 62      -0.000000296536
 63       0.000000430597
 64       0.000000482686
 65      -0.000003120785
 66      -0.000001330838
 67       0.000002978147
 68      -0.000004120178
 69      -0.000004690700
 70       0.000007101208
 71       0.000003064629
 72      -0.000006770939
 73       0.000009405269
 74       0.000010693570
 75      -0.000014621708
 76      -0.000006304543
 77       0.000013942563
 78      -0.000019361201
 79      -0.000022015419
 80       0.000021841214
 81       0.000009418827
 82      -0.000020826529
 83       0.000028921993
 84       0.000032886364
 85      -0.000022017077
 86      -0.000009494678
 87       0.000020994222
 88      -0.000029154879
 89      -0.000033151169
 90      -0.000002172604
 91      -0.000000936814
 92       0.000002071499
 93      -0.000002876955
 94      -0.000003271168
 95       0.000001212726
 96       0.000000522949
 97      -0.000001156339
 98       0.000001605886
 99       0.000001825969
100      -0.000000204190
101       0.000000057554
102      -0.000000236220
103      -0.000000123766
104      -0.000000294622
105      -0.000000481527
106       0.000000183192
107       0.000009006392
108      -0.000004412472
109       0.000009789486
110       0.000008026104
111       0.000009172575
112       0.000018243353
113      -0.000005586729
114      -0.000010058410
115       0.000004937336
116      -0.000010929890
117      -0.000008976536
118      -0.000010224762
119      -0.000020359322
120       0.000006226828
121       0.000002336271
122      -0.000011798054
123       0.000023181681
124      -0.000062009268
125      -0.000087965166
126      -0.000116447700
127      -0.000007336376
128       0.000016221701
129       0.000004646117
130       0.000025040438
131      -0.000055367938
132      -0.000015857982
133      -0.000015247694
134       0.000033714212
135       0.000009656560
136       0.000004916370
137       0.000002120155
138      -0.000004688195
139       0.000006510125
140       0.000007402682
141      -0.000019954152
142      -0.000008604983
143       0.000019027827
144      -0.000026422768
145      -0.000030045226
146       0.000002908810
147      -0.000001429072
148       0.000003160065
149       0.000002597745
150       0.000002954237
151       0.000005885337
152      -0.000001798705
 Sym=     1a
 Ene= -3.20192626308278E+02
 Spin= Alpha
 Occup= 1.000000
  1      -0.000000000002
  2      -0.000000000002
  3      -0.000000000003
  4      -0.000000000009
  5      -0.000000000007
  6      -0.000000000010
  7       0.000000000037
  8       0.000000000019
  9       0.000000000025
 10      -0.000000000064
 11       0.000000000107
 12      -0.000000000175
 13       0.000000000283
 14      -0.000000000396
 15       0.000000000405
 16      -0.000000000244
 17      -0.000000000031
 18       0.000000000015
 19       0.295389808319
 20       0.079119277708
 21       0.190192891591
 22       0.393419961746
 23       0.105376361440
 24       0.253311651342
 25       0.246721725172
 26       0.066083677034
 27       0.158856930747
 28       0.011634228677
 29       0.003116193372
 30       0.007490940915
 31       0.004671443925
 32       0.001251232330
 33       0.003007806661
 34      -0.003184867328
 35      -0.000853057256
 36      -0.002050643320
 37       0.001901483801
 38       0.000509306861
 39       0.001224310084
 40      -0.001133593197
 41      -0.000303629734
 42      -0.000729887737
 43       0.000658098144
 44       0.000176269858
 45       0.000423730352
 46      -0.000363381057
 47      -0.000097330764
 48      -0.000233970602
 49       0.000173117396
 50       0.000046368998
 51       0.000111465254
 52      -0.000055117822
 53      -0.000014763145
 54      -0.000035488759
 55      -0.000000103279
 56       0.000000001538
 57      -0.000000232953
 58       0.000000232768
 59      -0.000000284086
 60      -0.000000241906
 61       0.000000003615
 62      -0.000000545698
 63       0.000000545340
 64      -0.000000665563
 65      -0.000000112738
 66       0.000000001688
 67      -0.000000254343
 68       0.000000254172
 69      -0.000000310184
 70       0.000000146324
 71      -0.000000002202
 72       0.000000330172
 73      -0.000000329953
 74       0.000000402653
 75      -0.000000328932
 76       0.000000004943
 77      -0.000000742187
 78       0.000000741698
 79      -0.000000905121
 80       0.000000461135
 81      -0.000000006932
 82       0.000001040494
 83      -0.000001039810
 84       0.000001268908
 85      -0.000000470886
 86       0.000000007079
 87      -0.000001062494
 88       0.000001061794
 89      -0.000001295738
 90      -0.000000640264
 91       0.000000009595
 92      -0.000001444460
 93       0.000001443485
 94      -0.000001761735
 95       0.000000190176
 96      -0.000000002851
 97       0.000000429049
 98      -0.000000428760
 99       0.000000523285
100      -0.000001624040
101      -0.000000842961
102       0.000001181499
103      -0.000000960691
104       0.000000423470
105       0.000000907313
106       0.000002395837
107       0.000000043026
108      -0.000000297457
109       0.000000163117
110      -0.000000652976
111      -0.000000207750
112       0.000000417257
113       0.000000673809
114       0.000000613481
115       0.000000893714
116      -0.000000796080
117       0.000001583324
118       0.000000193558
119      -0.000001136622
120      -0.000002231339
121      -0.000000000006
122       0.000000000029
123      -0.000000000057
124       0.000000000152
125       0.000000000216
126       0.000000000284
127       0.000001370392
128       0.000000367007
129       0.000000882334
130      -0.000002744786
131      -0.000000735023
132      -0.000001767214
133       0.000007291136
134       0.000001952792
135       0.000004694509
136      -0.000000620806
137       0.000000009296
138      -0.000001400505
139       0.000001399555
140      -0.000001708172
141       0.000001725146
142      -0.000000025824
143       0.000003891790
144      -0.000003889144
145       0.000004746790
146       0.000000891629
147       0.000001102955
148      -0.000001037913
149       0.000001885389
150       0.000000160827
151      -0.000001381574
152      -0.000002791177
 Sym=     1a
 Ene= -3.20191230838720E+02
 Spin= Alpha
 Occup= 1.000000
  1      -0.000000000024
  2      -0.000000000031
  3      -0.000000000041
  4      -0.000000000129
  5      -0.000000000060
  6      -0.000000000251
  7       0.000000000725
  8       0.000000000063
  9       0.000000000593
 10      -0.000000001924
 11       0.000000003474
 12      -0.000000005548
 13       0.000000008699
 14      -0.000000011963
 15       0.000000012256
 16      -0.000000007549
 17      -0.000000000722
 18       0.000000000404
 19      -0.147712094536
 20      -0.150398464046
 21       0.291977605833
 22      -0.196733057061
 23      -0.200310947709
 24       0.388875719254
 25      -0.123373639305
 26      -0.125617376887
 27       0.243868587293
 28      -0.005816228602
 29      -0.005922006172
 30       0.011496746779
 31      -0.002336238684
 32      -0.002378725557
 33       0.004617965152
 34       0.001592732310
 35       0.001621696286
 36      -0.003148300275
 37      -0.000950918273
 38      -0.000968207991
 39       0.001879646937
 40       0.000566915377
 41       0.000577218484
 42      -0.001120599910
 43      -0.000329116339
 44      -0.000335092668
 45       0.000650549574
 46       0.000181727560
 47       0.000185023420
 48      -0.000359211058
 49      -0.000086579997
 50      -0.000088153774
 51       0.000171139469
 52       0.000027565526
 53       0.000028066807
 54      -0.000054487843
 55      -0.000000149293
 56       0.000000179726
 57      -0.000000256535
 58      -0.000000223851
 59       0.000000082115
 60      -0.000000376619
 61       0.000000453319
 62      -0.000000647096
 63      -0.000000564810
 64       0.000000207124
 65      -0.000000170618
 66       0.000000205737
 67      -0.000000293758
 68      -0.000000255906
 69       0.000000094294
 70       0.000000220701
 71      -0.000000266485
 72       0.000000380597
 73       0.000000331082
 74      -0.000000122435
 75      -0.000000502108
 76       0.000000606096
 77      -0.000000865580
 78      -0.000000753208
 79       0.000000278325
 80       0.000000703646
 81      -0.000000849531
 82       0.000001213269
 83       0.000001055552
 84      -0.000000390240
 85      -0.000000717744
 86       0.000000866567
 87      -0.000001237603
 88      -0.000001076701
 89       0.000000398077
 90      -0.000000978942
 91       0.000001178627
 92      -0.000001682597
 93      -0.000001468177
 94       0.000000538798
 95       0.000000290766
 96      -0.000000350144
 97       0.000000499876
 98       0.000000436087
 99      -0.000000160119
100      -0.000001372341
101      -0.000000653589
102       0.000002045222
103      -0.000000757974
104      -0.000002077482
105       0.000000138521
106      -0.000002157847
107      -0.000000269205
108      -0.000000073394
109       0.000000436524
110      -0.000000143224
111      -0.000000440517
112       0.000000035234
113      -0.000000416764
114       0.000001066456
115       0.000000410030
116      -0.000001653756
117       0.000000579094
118       0.000001673782
119      -0.000000122979
120       0.000001666081
121      -0.000000000165
122       0.000000000834
123      -0.000000001640
124       0.000000004398
125       0.000000006272
126       0.000000008374
127      -0.000000681595
128      -0.000000695822
129       0.000001348055
130       0.000001363300
131       0.000001394140
132      -0.000002697318
133      -0.000003628335
134      -0.000003698738
135       0.000007173876
136      -0.000000950222
137       0.000001143252
138      -0.000001631930
139      -0.000001425019
140       0.000000521989
141       0.000002641981
142      -0.000003177947
143       0.000004536194
144       0.000003962020
145      -0.000001450409
146       0.000001364996
147       0.000000541901
148      -0.000002108689
149       0.000000742496
150       0.000002133062
151      -0.000000157016
152       0.000002136462
 Sym=     1a
 Ene= -8.30462574387541E+01
 Spin= Alpha
 Occup= 1.000000
  1      -0.016819071331
  2      -0.020637772178
  3      -0.036301359501
  4      -0.073992485748
  5      -0.104964735136
  6      -0.031004591068
  7       0.378840738301
  8       0.690456214224
  9      -0.476047406172
 10      -0.892074805742
 11      -0.029639615387
 12      -0.037833096792
 13       0.025308602444
 14      -0.016999127366
 15       0.011134087495
 16      -0.006704368793
 17       0.002807998617
 18      -0.000744477441
 19       0.000013839120
 20      -0.000030600863
 21      -0.000008764197
 22       0.000020512363
 23      -0.000045356636
 24      -0.000012990302
 25       0.000000925489
 26      -0.000002046382
 27      -0.000000586153
 28      -0.000045508102
 29       0.000100626551
 30       0.000028820101
 31      -0.000045530667
 32       0.000100677128
 33       0.000028833879
 34       0.000028897363
 35      -0.000063896283
 36      -0.000018300533
 37      -0.000045874640
 38       0.000101435830
 39       0.000029051967
 40       0.000078776952
 41      -0.000174187863
 42      -0.000049888641
 43      -0.000124428202
 44       0.000275129745
 45       0.000078799096
 46       0.000259442827
 47      -0.000573667637
 48      -0.000164302463
 49      -0.000048593134
 50       0.000107446804
 51       0.000030773538
 52       0.000008007610
 53      -0.000017706036
 54      -0.000005071137
 55       0.000254197758
 56       0.000049593423
 57      -0.000251720506
 58       0.000287056821
 59       0.000349475244
 60       0.000417171098
 61       0.000079888061
 62      -0.000413339969
 63       0.000469858551
 64       0.000572702892
 65       0.000122847470
 66       0.000024982728
 67      -0.000121493197
 68       0.000139566428
 69       0.000169456723
 70      -0.000034968437
 71      -0.000010824676
 72       0.000034005823
 73      -0.000042792693
 74      -0.000050294017
 75       0.000042403270
 76       0.000016356679
 77      -0.000040733657
 78       0.000054557550
 79       0.000062777631
 80      -0.000061654383
 81      -0.000025560613
 82       0.000058950240
 83      -0.000080794215
 84      -0.000092263985
 85       0.000156318630
 86       0.000066902228
 87      -0.000149136623
 88       0.000206575660
 89       0.000235087728
 90      -0.000019209003
 91      -0.000008049182
 92       0.000018353226
 93      -0.000025242789
 94      -0.000028793130
 95       0.000001778007
 96       0.000000686819
 97      -0.000001707856
 98       0.000002288447
 99       0.000002632868
100       0.000004777747
101      -0.000002407949
102       0.000005169425
103       0.000004350559
104       0.000004728366
105       0.000009570300
106      -0.000002873360
107      -0.000017378810
108       0.000008562027
109      -0.000018873175
110      -0.000015552926
111      -0.000017601933
112      -0.000035125948
113       0.000010716137
114       0.000056216616
115      -0.000027630293
116       0.000061073904
117       0.000050219096
118       0.000057073386
119       0.000113730221
120      -0.000034753026
121      -0.000005008472
122       0.000031537065
123      -0.000068645644
124       0.000209444327
125       0.000393299673
126       0.000759585543
127       0.000018043064
128      -0.000039895949
129      -0.000011426492
130      -0.000066997657
131       0.000148142000
132       0.000042428935
133       0.000140913451
134      -0.000311581019
135      -0.000089239071
136      -0.000009013336
137      -0.000003887769
138       0.000008594545
139      -0.000011936063
140      -0.000013571900
141       0.000042470955
142       0.000018319182
143      -0.000040497576
144       0.000056242873
145       0.000063950929
146      -0.000007988035
147       0.000003925626
148      -0.000008678356
149      -0.000007135185
150      -0.000008110711
151      -0.000016161062
152       0.000004938779
 Sym=     1a
 Ene= -7.02989695065832E+01
 Spin= Alpha
 Occup= 1.000000
  1       0.000003241865
  2       0.000003907270
  3       0.000007272269
  4       0.000013448315
  5       0.000022330067
  6       0.000001095322
  7      -0.000061901563
  8      -0.000172950681
  9       0.000194038254
 10       0.000014379348
 11       0.000233587250
 12      -0.000400826006
 13       0.000688157118
 14      -0.000976527660
 15       0.001048414413
 16      -0.000701175365
 17      -0.000054139752
 18       0.000035664842
 19       0.077282776902
 20      -0.170901472428
 21      -0.048934265385
 22       0.116878048336
 23      -0.258461604673
 24      -0.074005382245
 25      -0.002332313056
 26       0.005157625601
 27       0.001476785392
 28      -0.290387748441
 29       0.642157229323
 30       0.183869054148
 31      -0.139773521711
 32       0.309092160395
 33       0.088502444957
 34       0.006986754661
 35      -0.015450346570
 36      -0.004423911443
 37      -0.006445440274
 38       0.014253284558
 39       0.004081164609
 40       0.003810270728
 41      -0.008425909807
 42      -0.002412623895
 43      -0.002338987437
 44       0.005172332310
 45       0.001481036109
 46       0.001423343975
 47      -0.003147492558
 48      -0.000901267300
 49      -0.000583119368
 50       0.001289492010
 51       0.000369224763
 52       0.000179116215
 53      -0.000396093449
 54      -0.000113413749
 55       0.000030872155
 56       0.000013641242
 57      -0.000029383198
 58       0.000041152835
 59       0.000046664053
 60       0.000022951396
 61       0.000010411697
 62      -0.000021799873
 63       0.000030817962
 64       0.000034839608
 65       0.000020424727
 66       0.000009120450
 67      -0.000019425778
 68       0.000027303972
 69       0.000030925224
 70      -0.000044281787
 71      -0.000019193712
 72       0.000042209075
 73      -0.000058717979
 74      -0.000066728787
 75       0.000083797006
 76       0.000036233650
 77      -0.000079888913
 78       0.000111043260
 79       0.000126226821
 80      -0.000127903998
 81      -0.000055200391
 82       0.000121955579
 83      -0.000169404818
 84      -0.000192609127
 85       0.000148312485
 86       0.000063981656
 87      -0.000141419422
 88       0.000196413216
 89       0.000223327518
 90       0.000008468112
 91       0.000003640694
 92      -0.000008076111
 93       0.000011204488
 94       0.000012744185
 95      -0.000006496704
 96      -0.000002797866
 97       0.000006195400
 98      -0.000008599836
 99      -0.000009779985
100      -0.000108361545
101       0.000054217106