[Molden Format]
[Title]
 Molden file created by orca_2mkl for BaseName=/home/nikolayandreadi_2125/_scratch/F2_cc/Tm_F2_cc

[Atoms] AU
Tm   1  69         -0.2779522581        -0.3498525581        -1.5125443565 
F    2   9         -1.8424886498         2.8571260748        -0.6252121120 
F    3   9          3.2953800214        -0.8456618936        -0.7402302931 
[GTO]
  1 0
s   6 1.0 
  1319284.9947909999      2612.7927579715
   586348.8865740000      -709.4442498508
   260599.5051440000      1510.6834110105
   115822.0022860000       316.8056665606
    51476.4454610000       886.9370256752
    22878.4202050000       639.6546354182
s   1 1.0 
    10168.1867580000       721.6767731110
s   1 1.0 
     4519.1941150000       392.8310785418
s   1 1.0 
     2008.5307180000       213.8301550254
s   1 1.0 
      892.6803190000       116.3943936408
s   1 1.0 
      396.7468080000        63.3570829114
s   1 1.0 
      176.3319150000        34.4872277653
s   1 1.0 
       78.3697400000        18.7724690374
s   1 1.0 
       34.8309960000        10.2184379542
s   1 1.0 
       15.4804420000         5.5622129217
s   1 1.0 
        6.8801970000         3.0276854053
s   1 1.0 
        3.0578650000         1.6480630530
s   1 1.0 
        1.3590510000         0.8970918436
s   1 1.0 
        0.6040230000         0.4883151508
s   1 1.0 
        0.2684550000         0.2658053482
s   1 1.0 
        0.1193130000         0.1446858022
s   1 1.0 
        0.0530280000         0.0787569752
s   1 1.0 
        0.0235680000         0.0428698673
p   5 1.0 
    18167.9700320000      4276.3190036639
     7267.1880130000      1622.6508988842
     2906.8752050000      2563.2682837476
     1162.7500820000      2427.3733177812
      465.1000330000      2276.3124957386
p   1 1.0 
      186.0400130000       979.3728025536
p   1 1.0 
       74.4160050000       311.5466079219
p   1 1.0 
       29.7664020000        99.1055591708
p   1 1.0 
       11.9065610000        31.5263007686
p   1 1.0 
        4.7626240000        10.0287766222
p   1 1.0 
        1.9050500000         3.1902378345
p   1 1.0 
        0.7620200000         1.0148411070
p   1 1.0 
        0.3048080000         0.3228293707
p   1 1.0 
        0.1219230000         0.1026944890
p   1 1.0 
        0.0487690000         0.0326678010
p   1 1.0 
        0.0195080000         0.0103921647
d   4 1.0 
     1329.8192350000      6851.9549332394
      483.5706310000      6453.4619104032
      175.8438660000      6042.5378437114
       63.9432240000      3305.1590466818
d   1 1.0 
       23.2520810000       701.9049111231
d   1 1.0 
        8.4553020000       119.5215043070
d   1 1.0 
        3.0746550000        20.3523128069
d   1 1.0 
        1.1180570000         3.4656283475
d   1 1.0 
        0.4065660000         0.5901323645
d   1 1.0 
        0.1478420000         0.1004884817
d   1 1.0 
        0.0537610000         0.0171114939
d   1 1.0 
        0.0195490000         0.0029136544
f   4 1.0 
       39.2338200000      2365.3777040161
       13.0779400000       653.8517677584
        4.3593130000        81.3062960040
        1.4531040000         4.7585868412
f   1 1.0 
        0.4843680000         1.1159502330
f   1 1.0 
        0.1614560000         0.0942154234

  2 0
s   6 1.0 
    35479.1004410000         1.9229128581
     5318.4728983000         2.2734773358
     1210.4810975000         3.4747482552
      342.8551814000         5.2879612972
      112.0194318100         7.1666332516
       40.7147402500         7.7556346254
s   1 1.0 
       16.0396781100         5.7122450312
s   1 1.0 
        6.5038186700         2.9025947842
s   1 1.0 
        1.5440477500         0.9872011154
s   1 1.0 
        0.6122345300        -0.4932856223
s   1 1.0 
        0.2402798000         0.2445952611
p   4 1.0 
       80.2339004800         4.2755032106
       18.5940107400         4.7314752302
        5.6867902700         4.0864798013
        1.9511006300         2.2989954518
p   1 1.0 
        0.6697021100         0.8635593126
p   1 1.0 
        0.2165130000         0.2105208234
d   1 1.0 
        3.1070000000        20.7284714039
d   1 1.0 
        0.8550000000         2.1672588463
f   1 1.0 
        1.9170000000        24.6547062912

  3 0
s   6 1.0 
    35479.1004410000         1.9229128581
     5318.4728983000         2.2734773358
     1210.4810975000         3.4747482552
      342.8551814000         5.2879612972
      112.0194318100         7.1666332516
       40.7147402500         7.7556346254
s   1 1.0 
       16.0396781100         5.7122450312
s   1 1.0 
        6.5038186700         2.9025947842
s   1 1.0 
        1.5440477500         0.9872011154
s   1 1.0 
        0.6122345300        -0.4932856223
s   1 1.0 
        0.2402798000         0.2445952611
p   4 1.0 
       80.2339004800         4.2755032106
       18.5940107400         4.7314752302
        5.6867902700         4.0864798013
        1.9511006300         2.2989954518
p   1 1.0 
        0.6697021100         0.8635593126
p   1 1.0 
        0.2165130000         0.2105208234
d   1 1.0 
        3.1070000000        20.7284714039
d   1 1.0 
        0.8550000000         2.1672588463
f   1 1.0 
        1.9170000000        24.6547062912

[5D]
[7F]
[9G]
[MO]
 Sym=     1a
 Ene= -2.19001545115563E+03
 Spin= Alpha
 Occup= 1.000000
  1      -0.095749076399
  2      -0.104044596911
  3      -0.178121610015
  4      -0.300852508266
  5      -0.333544275055
  6      -0.166362433187
  7      -0.009003904803
  8      -0.003391621845
  9       0.002467916508
 10      -0.001634612567
 11       0.001097618120
 12      -0.000735184152
 13       0.000487295332
 14      -0.000323864732
 15       0.000217922796
 16      -0.000139460796
 17       0.000050606245
 18      -0.000012840108
 19       0.000000070555
 20       0.000000102391
 21       0.000000061394
 22      -0.000000111246
 23      -0.000000158284
 24      -0.000000095354
 25       0.000000121188
 26       0.000000168020
 27       0.000000102029
 28      -0.000000228681
 29      -0.000000311550
 30      -0.000000190174
 31       0.000000399260
 32       0.000000541049
 33       0.000000330791
 34      -0.000000683450
 35      -0.000000925454
 36      -0.000000565920
 37       0.000001213354
 38       0.000001648614
 39       0.000001006985
 40      -0.000002098486
 41      -0.000002868980
 42      -0.000001748820
 43       0.000003416569
 44       0.000004667063
 45       0.000002845645
 46      -0.000007539318
 47      -0.000010469925
 48      -0.000006349612
 49       0.000001320763
 50       0.000001848198
 51       0.000001118103
 52      -0.000000214047
 53      -0.000000306801
 54      -0.000000184186
 55      -0.000000138124
 56       0.000000279594
 57       0.000000368893
 58      -0.000000127439
 59       0.000000454416
 60      -0.000000049210
 61      -0.000000167644
 62      -0.000000205618
 63       0.000000140534
 64      -0.000000471546
 65       0.000000312432
 66       0.000000045443
 67       0.000000020507
 68      -0.000000183428
 69       0.000000578875
 70      -0.000000750632
 71       0.000000089057
 72       0.000000200947
 73       0.000000302473
 74      -0.000000920808
 75       0.000001526402
 76      -0.000000268437
 77      -0.000000520721
 78      -0.000000551353
 79       0.000001664043
 80      -0.000002575587
 81       0.000000468493
 82       0.000000896925
 83       0.000000921636
 84      -0.000002772164
 85       0.000007200135
 86      -0.000001321017
 87      -0.000002531304
 88      -0.000002553954
 89       0.000007715870
 90      -0.000000613250
 91       0.000000153678
 92       0.000000271547
 93       0.000000182459
 94      -0.000000556128
 95       0.000000016944
 96      -0.000000009893
 97      -0.000000016986
 98       0.000000002543
 99       0.000000000145
100       0.000000125229
101       0.000000056233
102       0.000000064902
103      -0.000000020720
104       0.000000095079
105       0.000000285200
106      -0.000000092083
107      -0.000000672171
108      -0.000000302663
109      -0.000000351578
110       0.000000112958
111      -0.000000521653
112      -0.000001547716
113       0.000000499626
114       0.000002209568
115       0.000001016956
116       0.000001163872
117      -0.000000400477
118       0.000001775572
119       0.000005189864
120      -0.000001675958
121      -0.000000176022
122       0.000000808084
123      -0.000001526245
124       0.000004344355
125       0.000008413463
126       0.000017521367
127       0.000000323222
128      -0.000000653546
129      -0.000000179631
130      -0.000001319200
131       0.000002699843
132       0.000000746449
133       0.000002752905
134      -0.000006605006
135      -0.000001955668
136      -0.000000157704
137      -0.000000032262
138       0.000000116126
139      -0.000000112354
140      -0.000000211651
141       0.000000842282
142       0.000000264862
143      -0.000000671068
144       0.000000791895
145       0.000001225498
146      -0.000000133877
147       0.000000065535
148      -0.000000141756
149      -0.000000104739
150      -0.000000118486
151      -0.000000259017
152       0.000000057326
153      -0.000000176720
154       0.000000810691
155      -0.000001528831
156       0.000004315775
157       0.000008295821
158       0.000017263662
159      -0.000000732983
160       0.000000105667
161      -0.000000156797
162       0.000002955539
163      -0.000000411853
164       0.000000638066
165      -0.000007136671
166       0.000000569512
167      -0.000001714912
168      -0.000000169542
169       0.000000108167
170       0.000000009525
171       0.000000231716
172      -0.000000108300
173       0.000000882635
174      -0.000000625607
175       0.000000022981
176      -0.000001394407
177       0.000000528182
178      -0.000000126145
179      -0.000000181438
180       0.000000022192
181       0.000000142694
182      -0.000000030694
183      -0.000000262299
184       0.000000112435
 Sym=     1a
 Ene= -3.74990517853814E+02
 Spin= Alpha
 Occup= 1.000000
  1      -0.036561786718
  2      -0.043964499391
  3      -0.076062937958
  4      -0.151602324312
  5      -0.202340862856
  6      -0.066681420671
  7       0.489180593373
  8       0.586154915474
  9       0.084490030009
 10       0.004788946753
 11      -0.004213369525
 12       0.002967150831
 13      -0.002097512040
 14       0.001437106158
 15      -0.000974576909
 16       0.000626913785
 17      -0.000227895895
 18       0.000057889796
 19       0.000001084966
 20       0.000001626194
 21       0.000000959953
 22       0.000002107400
 23       0.000003052852
 24       0.000001822586
 25       0.000001506304
 26       0.000002188440
 27       0.000001304417
 28      -0.000000395782
 29      -0.000000530511
 30      -0.000000326519
 31      -0.000000895787
 32      -0.000001199681
 33      -0.000000736132
 34       0.000002703417
 35       0.000003657654
 36       0.000002237175
 37      -0.000005257637
 38      -0.000007143849
 39      -0.000004363373
 40       0.000009302517
 41       0.000012724964
 42       0.000007755207
 43      -0.000015406590
 44      -0.000021059711
 45      -0.000012837886
 46       0.000033966922
 47       0.000047175191
 48       0.000028608958
 49      -0.000005939196
 50      -0.000008313066
 51      -0.000005028724
 52       0.000000961748
 53       0.000001379307
 54       0.000000827900
 55       0.000022579700
 56      -0.000039003418
 57      -0.000051831420
 58       0.000016137791
 59      -0.000058378821
 60       0.000002280964
 61      -0.000004440324
 62      -0.000005869421
 63       0.000001982266
 64      -0.000007084924
 65      -0.000001424943
 66       0.000000995020
 67       0.000001422282
 68       0.000000000944
 69       0.000000208824
 70       0.000003234772
 71      -0.000000957879
 72      -0.000001590488
 73      -0.000000903360
 74       0.000002607217
 75      -0.000006890114
 76       0.000001435702
 77       0.000002635180
 78       0.000002329574
 79      -0.000006978816
 80       0.000011696113
 81      -0.000002265842
 82      -0.000004250750
 83      -0.000004084098
 84       0.000012258456
 85      -0.000032468257
 86       0.000006022058
 87       0.000011497398
 88       0.000011470490
 89      -0.000034639209
 90       0.000002768981
 91      -0.000000723257
 92      -0.000001263224
 93      -0.000000803280
 94       0.000002441408
 95      -0.000000078632
 96       0.000000054965
 97       0.000000089975
 98      -0.000000017679
 99       0.000000020571
100      -0.000000649278
101      -0.000000282308
102      -0.000000326343
103       0.000000093903
104      -0.000000446598
105      -0.000001405938
106       0.000000453697
107       0.000003148078
108       0.000001409419
109       0.000001638307
110      -0.000000517447
111       0.000002404386
112       0.000007187689
113      -0.000002319897
114      -0.000010006332
115      -0.000004602474
116      -0.000005267877
117       0.000001809534
118      -0.000008027199
119      -0.000023481458
120       0.000007582537
121       0.000000676151
122      -0.000003359561
123       0.000006641793
124      -0.000019436348
125      -0.000037643138
126      -0.000078820834
127      -0.000001485619
128       0.000003004071
129       0.000000825710
130       0.000005931484
131      -0.000012131618
132      -0.000003353112
133      -0.000012381740
134       0.000029701474
135       0.000008793588
136       0.000000738183
137       0.000000158877
138      -0.000000546387
139       0.000000539918
140       0.000000999895
141      -0.000003849752
142      -0.000001217551
143       0.000003065764
144      -0.000003625865
145      -0.000005612368
146       0.000000619656
147      -0.000000307572
148       0.000000660798
149       0.000000483853
150       0.000000553917
151       0.000001208545
152      -0.000000260787
153       0.000000678330
154      -0.000003368406
155       0.000006648960
156      -0.000019299768
157      -0.000037107330
158      -0.000077660204
159       0.000003366087
160      -0.000000485141
161       0.000000720108
162      -0.000013276749
163       0.000001853258
164      -0.000002865000
165       0.000032093916
166      -0.000002563690
167       0.000007710970
168       0.000000791969
169      -0.000000509273
170      -0.000000037906
171      -0.000001097415
172       0.000000505058
173      -0.000004031731
174       0.000002857691
175      -0.000000111789
176       0.000006379895
177      -0.000002417692
178       0.000000581525
179       0.000000842935
180      -0.000000104976
181      -0.000000660088
182       0.000000145858
183       0.000001215220
184      -0.000000528034
 Sym=     1a
 Ene= -3.32055404248160E+02
 Spin= Alpha
 Occup= 1.000000
  1       0.000000000661
  2       0.000000000759
  3       0.000000001523
  4       0.000000002342
  5       0.000000004903
  6      -0.000000002127
  7      -0.000000004937
  8      -0.000000015870
  9       0.000000013279
 10      -0.000000031249
 11       0.000000054998
 12      -0.000000089473
 13       0.000000143632
 14      -0.000000204030
 15       0.000000212202
 16      -0.000000132910
 17      -0.000000007169
 18       0.000000005235
 19       0.087951011118
 20       0.133792268105
 21      -0.324178445568
 22       0.116651271849
 23       0.177451467765
 24      -0.429964638842
 25       0.072928904593
 26       0.110940452051
 27      -0.268808522668
 28       0.003366821111
 29       0.005121617679
 30      -0.012409707837
 31       0.001389648545
 32       0.002114040235
 33      -0.005122229698
 34      -0.000947122495
 35      -0.001440961184
 36       0.003491267619
 37       0.000565921096
 38       0.000861232570
 39      -0.002086431577
 40      -0.000337384919
 41      -0.000513836273
 42       0.001244442089
 43       0.000196040909
 44       0.000299006344
 45      -0.000723730642
 46      -0.000108142177
 47      -0.000165309905
 48       0.000399775986
 49       0.000050890906
 50       0.000077496200
 51      -0.000187695304
 52      -0.000016223001
 53      -0.000024685051
 54       0.000059805319
 55      -0.000001036699
 56      -0.000000539720
 57      -0.000000745666
 58      -0.000000216879
 59       0.000000558859
 60       0.000000582960
 61       0.000000315792
 62       0.000000411661
 63       0.000000108575
 64      -0.000000320848
 65       0.000000450667
 66       0.000000235275
 67       0.000000317346
 68       0.000000118332
 69      -0.000000229174
 70      -0.000000662729
 71      -0.000000349232
 72      -0.000000458630
 73      -0.000000195667
 74       0.000000324437
 75       0.000001231377
 76       0.000000653227
 77       0.000000845446
 78       0.000000375321
 79      -0.000000595563
 80      -0.000001692254
 81      -0.000000906893
 82      -0.000001150252
 83      -0.000000530164
 84       0.000000808388
 85       0.000001360142
 86       0.000000766780
 87       0.000000892134
 88       0.000000449201
 89      -0.000000635999
 90       0.000002169422
 91       0.000001159289
 92       0.000001536839
 93       0.000000450642
 94      -0.000001170981
 95      -0.000000643168
 96      -0.000000343846
 97      -0.000000454337
 98      -0.000000138614
 99       0.000000344384
100      -0.000000816521
101       0.000006022829
102       0.000008088204
103      -0.000000393680
104       0.000002384577
105      -0.000003155189
106       0.000001023534
107       0.000002158737
108      -0.000002478854
109      -0.000003757396
110      -0.000000623541
111       0.000001253711
112      -0.000000109561
113      -0.000000014229
114      -0.000002962410
115       0.000001746206
116       0.000002877086
117       0.000001083165
118      -0.000002667888
119       0.000001209590
120      -0.000000298330
121      -0.000000006533
122       0.000000033144
123      -0.000000066120
124       0.000000190327
125       0.000000289954
126       0.000000380444
127       0.000000490058
128       0.000000656729
129      -0.000001726447
130      -0.000001095799
131      -0.000001341353
132       0.000003748151
133       0.000002327423
134       0.000003297235
135      -0.000008338640
136       0.000001077935
137      -0.000001341256
138       0.000002063687
139       0.000001248969
140      -0.000000172172
141      -0.000003186816
142       0.000003984541
143      -0.000006150517
144      -0.000003681351
145       0.000000549845
146      -0.000001794890
147      -0.000000866699
148       0.000002422738
149      -0.000001136508
150      -0.000002532549
151       0.000000582666
152      -0.000001746694
153       0.000000004159
154      -0.000000021074
155       0.000000041963
156      -0.000000120000
157      -0.000000184991
158      -0.000000243351
159       0.000000489251
160       0.000000685942
161      -0.000001668271
162      -0.000001087191
163      -0.000001441982
164       0.000003514287
165       0.000002323873
166       0.000003364620
167      -0.000008198256
168       0.000000938282
169       0.000002392865
170      -0.000000605573
171      -0.000000869907
172      -0.000000940802
173      -0.000002775842
174      -0.000007014784
175       0.000001769594
176       0.000002577265
177       0.000002758834
178      -0.000001944787
179       0.000002261160
180       0.000000018602
181       0.000002521191
182      -0.000001341473
183       0.000001436583
184       0.000001200872
 Sym=     1a
 Ene= -3.32053856298426E+02
 Spin= Alpha
 Occup= 1.000000
  1      -0.000000012574
  2      -0.000000014670
  3      -0.000000027720
  4      -0.000000047214
  5      -0.000000083893
  6       0.000000015383
  7       0.000000105110
  8       0.000000248721
  9      -0.000000049483
 10       0.000000295533
 11      -0.000000588656
 12       0.000001030519
 13      -0.000001956566
 14       0.000003235438
 15      -0.000002769941
 16       0.000000663959
 17      -0.000000097689
 18       0.000000059910
 19       0.290748431905
 20      -0.214709855565
 21      -0.009731976986
 22       0.385621959558
 23      -0.284771424855
 24      -0.012907628347
 25       0.241087517804
 26      -0.178036566256
 27      -0.008069690195
 28       0.011120888867
 29      -0.008212530960
 30      -0.000372285288
 31       0.004609001929
 32      -0.003403473114
 33      -0.000154156832
 34      -0.003161930151
 35       0.002334689612
 36       0.000105593919
 37       0.001928083433
 38      -0.001423315116
 39      -0.000064108011
 40      -0.001214728590
 41       0.000896321454
 42       0.000039989638
 43       0.000777895246
 44      -0.000573494215
 45      -0.000025155800
 46      -0.000490882120
 47       0.000360558347
 48       0.000015131829
 49       0.000181662891
 50      -0.000133947191
 51      -0.000005945703
 52      -0.000054703894
 53       0.000040397130
 54       0.000001826931
 55       0.000000018117
 56       0.000000268608
 57      -0.000000239837
 58       0.000000685520
 59       0.000000246837
 60      -0.000000017028
 61       0.000000719992
 62      -0.000000555256
 63       0.000001750417
 64       0.000000587644
 65       0.000000083707
 66      -0.000003474527
 67       0.000002744545
 68      -0.000008534776
 69      -0.000002815386
 70      -0.000000189791
 71       0.000008312546
 72      -0.000006577208
 73       0.000020432080
 74       0.000006740730
 75       0.000000355949
 76      -0.000017380250
 77       0.000013776961
 78      -0.000042732368
 79      -0.000014139168
 80      -0.000000488526
 81       0.000026577919
 82      -0.000021099918
 83       0.000065359357
 84       0.000021685051
 85       0.000001136393
 86      -0.000027384219
 87       0.000021422488
 88      -0.000067279683
 89      -0.000021564954
 90       0.000000025739
 91      -0.000002276638
 92       0.000001853624
 93      -0.000005650742
 94      -0.000001867608
 95      -0.000000043051
 96       0.000001375293
 97      -0.000001092695
 98       0.000003393082
 99       0.000001098247
100      -0.000000257610
101       0.000003810475
102      -0.000002323793
103      -0.000009484396
104      -0.000002926263
105       0.000002441918
106       0.000006268978
107       0.000001264943
108      -0.000017553466
109       0.000012160179
110       0.000018360978
111       0.000006973609
112       0.000000991520
113       0.000002783145
114      -0.000000994198
115       0.000017297877
116      -0.000011779619
117      -0.000018304409
118      -0.000006756161
119      -0.000000319878
120      -0.000002525409
121       0.000001960593
122      -0.000009947477
123       0.000019853340
124      -0.000057276604
125      -0.000087875001
126      -0.000114838229
127      -0.000006081634
128       0.000013846837
129       0.000004009131
130       0.000024538561
131      -0.000052966276
132      -0.000014997339
133      -0.000016034640
134       0.000033574223
135       0.000009354436
136       0.000003338600
137       0.000001588706
138      -0.000003683681
139       0.000005389555
140       0.000004863064
141      -0.000016429495
142      -0.000007549927
143       0.000016837281
144      -0.000024178079
145      -0.000024518513
146       0.000002372994
147      -0.000000749936
148       0.000002189811
149       0.000002604092
150       0.000002225983
151       0.000004030932
152      -0.000002557119
153      -0.000001964882
154       0.000009955518
155      -0.000019814385
156       0.000056507457
157       0.000086272112
158       0.000114476513
159      -0.000015015795
160       0.000001462563
161      -0.000003505474
162       0.000056734210
163      -0.000006705883
164       0.000012751826
165      -0.000037652598
166       0.000004755255
167      -0.000008357495
168      -0.000003590288
169       0.000003651366
170      -0.000000354391
171       0.000007422701
172      -0.000000766713
173       0.000017146589
174      -0.000016202334
175       0.000001773445
176      -0.000034072628
177       0.000005472880
178      -0.000002261034
179      -0.000002693395
180       0.000000036647
181       0.000003216466
182      -0.000000268827
183      -0.000005006484
184       0.000000300248
 Sym=     1a
 Ene= -3.32027347601861E+02
 Spin= Alpha
 Occup= 1.000000
  1      -0.000000276546
  2      -0.000000295638
  3      -0.000000714619
  4      -0.000000740270
  5      -0.000002698144
  6       0.000002626626
  7      -0.000000929451
  8       0.000009398371
  9      -0.000011243195
 10       0.000029795633
 11      -0.000052935868
 12       0.000085676273
 13      -0.000136788904
 14       0.000193458938
 15      -0.000204310520
 16       0.000133405824
 17       0.000006823715
 18      -0.000005345652
 19      -0.196126699857
 20      -0.258339643884
 21      -0.159829835399
 22      -0.260130410500
 23      -0.342645900840
 24      -0.211988505939
 25      -0.162586552290
 26      -0.214160219872
 27      -0.132496880953
 28      -0.007467265361
 29      -0.009836036837
 30      -0.006085353217
 31      -0.003109178222
 32      -0.004095176983
 33      -0.002533653923
 34       0.002122755003
 35       0.002795576479
 36       0.001729665895
 37      -0.001278195223
 38      -0.001682742103
 39      -0.001041241081
 40       0.000778963666
 41       0.001024774669
 42       0.000634226072
 43      -0.000471104837
 44      -0.000618888616
 45      -0.000383173904
 46       0.000276486055
 47       0.000361010458
 48       0.000223944512
 49      -0.000117637876
 50      -0.000154547278
 51      -0.000095692356
 52       0.000036632232
 53       0.000048236532
 54       0.000029845517
 55       0.000000795954
 56      -0.000000724428
 57      -0.000001045150
 58       0.000000177800
 59      -0.000000549855
 60       0.000000649877
 61       0.000000246930
 62       0.000000270972
 63      -0.000000544071
 64       0.000001593782
 65      -0.000003359230
 66       0.000000864211
 67       0.000001405003
 68       0.000001153956
 69      -0.000003077146
 70       0.000008092368
 71      -0.000002052133
 72      -0.000003350863
 73      -0.000002794689
 74       0.000007479955
 75      -0.000016917469
 76       0.000004304547
 77       0.000007056456
 78       0.000005781594
 79      -0.000015578034
 80       0.000026166607
 81      -0.000006433882
 82      -0.000010672138
 83      -0.000009037526
 84       0.000024597386
 85      -0.000027310524
 86       0.000006426735
 87       0.000010251266
 88       0.000010436589
 89      -0.000026749453
 90      -0.000001408775
 91       0.000001462208
 92       0.000002057523
 93      -0.000000409208
 94       0.000001381645
 95       0.000001115528
 96      -0.000000596902
 97      -0.000000863991
 98      -0.000000156500
 99       0.000000280923
100      -0.000007084333
101      -0.000001021830
102      -0.000001102556
103      -0.000001767044
104       0.000006104768
105       0.000001594365
106      -0.000000917248
107       0.000012201099
108       0.000004812192
109       0.000005171900
110      -0.000000980368
111       0.000004639240
112       0.000020701141
113      -0.000006650244
114      -0.000011771796
115      -0.000005155806
116      -0.000005322080
117       0.000001660419
118      -0.000006320316
119      -0.000022970347
120       0.000007383477
121       0.000001138026
122      -0.000005773109
123       0.000011511674
124      -0.000033000440
125      -0.000049192093
126      -0.000067217403
127      -0.000005409869
128       0.000007632314
129       0.000001649231
130       0.000018242732
131      -0.000029695317
132      -0.000007186371
133      -0.000015037050
134       0.000017890836
135       0.000003217428
136       0.000002673638
137       0.000001038195
138      -0.000000970875
139       0.000000987459
140       0.000005038986
141      -0.000011782876
142      -0.000004734755
143       0.000006196020
144      -0.000007475577
145      -0.000021005342
146       0.000000748983
147      -0.000001681145
148       0.000002058276
149      -0.000000510217
150       0.000001438539
151       0.000003837670
152       0.000002481015
153       0.000001210469
154      -0.000006132330
155       0.000012195066
156      -0.000034569087
157      -0.000051338167
158      -0.000071025721
159       0.000009451098
160      -0.000002779355
161       0.000001438928
162      -0.000035218495
163       0.000008097531
164      -0.000006291434
165       0.000023507428
166      -0.000008944888
167       0.000002741179
168       0.000002905432
169      -0.000001076514
170       0.000000568802
171      -0.000004139940
172       0.000003515249
173      -0.000012666743
174       0.000006430614
175      -0.000002148158
176       0.000019673322
177      -0.000012586658
178       0.000000618451
179       0.000002728277
180      -0.000001039444
181      -0.000000341041
182       0.000001228894
183       0.000001944430
184      -0.000004319132
 Sym=     1a
 Ene= -8.68180808359228E+01
 Spin= Alpha
 Occup= 1.000000
  1       0.017264762653
  2       0.021060159905
  3       0.036728075072
  4       0.074596073876
  5       0.104798657812
  6       0.028737036074
  7      -0.384724423677
  8      -0.688160390876
  9       0.492664981949
 10       0.884091625982
 11       0.024614597703
 12       0.038659873612
 13      -0.026110800870
 14       0.017874553882
 15      -0.012292115821
 16       0.007934279902
 17      -0.002894347926
 18       0.000736615331
 19       0.000006449386
 20       0.000007672567
 21       0.000004927451
 22       0.000009547574
 23       0.000011336119
 24       0.000007284811
 25      -0.000001552531
 26      -0.000002141145
 27      -0.000001295746
 28      -0.000013999554
 29      -0.000015007291
 30      -0.000010054784
 31      -0.000035012463
 32      -0.000045178145
 33      -0.000028131326
 34       0.000037206444
 35       0.000050359475
 36       0.000030805760
 37      -0.000064968511
 38      -0.000088494092
 39      -0.000054012221
 40       0.000117159485
 41       0.000160784413
 42       0.000097888497
 43      -0.000193394823
 44      -0.000265018630
 45      -0.000161422215
 46       0.000428870969
 47       0.000596289542
 48       0.000361487297
 49      -0.000075596126
 50      -0.000105891396
 51      -0.000064040714
 52       0.000012278687
 53       0.000017623215
 54       0.000010575605