[Molden Format]
[Title]
 Molden file created by orca_2mkl for BaseName=/home/nikolayandreadi_2125/_scratch/HERDB/La_Cl_cc

[Atoms] AU
La   1  57          0.2512636559         0.4573968724        -0.6790938732 
Cl   2  17         -1.7173887797        -2.6734805993        -3.8512807582 
Cl   3  17         -1.9498761168         4.7054898831         0.4200275381 
Cl   4  17          4.9825879850        -0.2739271415         0.2730314113 
[GTO]
  1 0
s   6 1.0 
   896770.4166840001      1651.3879225806
   398564.6296370000      -424.3379156277
   177139.8353940000       981.7209992710
    78728.8157310000       254.1508058902
    34990.5847690000       631.3809010161
    15551.3710090000       510.6983858205
s   1 1.0 
     6911.7204480000       540.2561451421
s   1 1.0 
     3071.8757550000       294.0781969131
s   1 1.0 
     1365.2781130000       160.0758948406
s   1 1.0 
      606.7902730000        87.1342806107
s   1 1.0 
      269.6845660000        47.4298948295
s   1 1.0 
      119.8598070000        25.8175646234
s   1 1.0 
       53.2710250000        14.0533020960
s   1 1.0 
       23.6760110000         7.6496487145
s   1 1.0 
       10.5226720000         4.1639414790
s   1 1.0 
        4.6767430000         2.2665626135
s   1 1.0 
        2.0785520000         1.2337602184
s   1 1.0 
        0.9238010000         0.6715740606
s   1 1.0 
        0.4105780000         0.3655584678
s   1 1.0 
        0.1824790000         0.1989847352
s   1 1.0 
        0.0811020000         0.1083137932
s   1 1.0 
        0.0360450000         0.0589581523
s   1 1.0 
        0.0160200000         0.0320927532
p   5 1.0 
    11986.2753990000      1952.3955328819
     4794.5101600000       868.3218153489
     1917.8040640000      1380.7954515787
      767.1216260000      1418.4854178134
      306.8486500000      1371.3064850729
p   1 1.0 
      122.7394600000       582.3315874344
p   1 1.0 
       49.0957840000       185.2445063692
p   1 1.0 
       19.6383140000        58.9278149325
p   1 1.0 
        7.8553250000        18.7454247406
p   1 1.0 
        3.1421300000         5.9630750378
p   1 1.0 
        1.2568520000         1.8969036124
p   1 1.0 
        0.5027410000         0.6034210674
p   1 1.0 
        0.2010960000         0.1919527675
p   1 1.0 
        0.0804390000         0.0610623363
p   1 1.0 
        0.0321750000         0.0194239827
p   1 1.0 
        0.0128700000         0.0061789299
d   4 1.0 
      797.4623660000      2851.7582730738
      289.9863150000      2782.3795269653
      105.4495690000      2564.2627723646
       38.3452980000      1335.5791852544
d   1 1.0 
       13.9437450000       286.8362852208
d   1 1.0 
        5.0704530000        48.8429533307
d   1 1.0 
        1.8438010000         8.3170567414
d   1 1.0 
        0.6704730000         1.4162416004
d   1 1.0 
        0.2438080000         0.2411592915
d   1 1.0 
        0.0886580000         0.0410654382
d   1 1.0 
        0.0322390000         0.0069925860
d   1 1.0 
        0.0117230000         0.0011906604
f   4 1.0 
        9.8326290000       117.1346343507
        3.2775430000        21.9421048206
        1.0925140000         1.8043818570
        0.3641710000         0.4166094652
f   1 1.0 
        0.1213900000        -0.0495920008
f   1 1.0 
        0.0404630000         0.0041867859

  2 0
s   7 1.0 
    69507.9909450000         4.1142286333
    10426.1568800000         4.2286655222
     2373.2334061000         5.8493829067
      671.5642007100         8.3358677251
      218.4199979000        10.0089622684
       77.5722497100         8.2783277553
       28.8888152800         2.9822029766
s   1 1.0 
      127.1052718500        26.9794296956
s   1 1.0 
       39.3395829600        11.1952141621
s   1 1.0 
        7.6740680000         3.2860890225
s   1 1.0 
        3.8745627600        -1.9682357562
s   1 1.0 
        1.8385832600         1.1253110111
s   1 1.0 
        0.5022905800        -0.4252324193
s   1 1.0 
        0.1796272300         0.1966478587
p   6 1.0 
      666.5042328400        13.1758105786
      157.6424169000        16.0544655669
       50.2625209800        17.4320614645
       18.5360781100        14.3789566857
        7.2940532800         7.6571902731
        2.9433249000         1.9874071930
p   1 1.0 
        1.0404970800         1.4979287975
p   1 1.0 
        0.3845641500        -0.4316692201
p   1 1.0 
        0.1306964300         0.1120133392
d   2 1.0 
        4.6100000000         7.5524217504
        1.0110000000         2.6539585854
d   1 1.0 
        0.3390000000         0.4293579962
f   1 1.0 
        0.7060000000         2.6050175686

  3 0
s   7 1.0 
    69507.9909450000         4.1142286333
    10426.1568800000         4.2286655222
     2373.2334061000         5.8493829067
      671.5642007100         8.3358677251
      218.4199979000        10.0089622684
       77.5722497100         8.2783277553
       28.8888152800         2.9822029766
s   1 1.0 
      127.1052718500        26.9794296956
s   1 1.0 
       39.3395829600        11.1952141621
s   1 1.0 
        7.6740680000         3.2860890225
s   1 1.0 
        3.8745627600        -1.9682357562
s   1 1.0 
        1.8385832600         1.1253110111
s   1 1.0 
        0.5022905800        -0.4252324193
s   1 1.0 
        0.1796272300         0.1966478587
p   6 1.0 
      666.5042328400        13.1758105786
      157.6424169000        16.0544655669
       50.2625209800        17.4320614645
       18.5360781100        14.3789566857
        7.2940532800         7.6571902731
        2.9433249000         1.9874071930
p   1 1.0 
        1.0404970800         1.4979287975
p   1 1.0 
        0.3845641500        -0.4316692201
p   1 1.0 
        0.1306964300         0.1120133392
d   2 1.0 
        4.6100000000         7.5524217504
        1.0110000000         2.6539585854
d   1 1.0 
        0.3390000000         0.4293579962
f   1 1.0 
        0.7060000000         2.6050175686

  4 0
s   7 1.0 
    69507.9909450000         4.1142286333
    10426.1568800000         4.2286655222
     2373.2334061000         5.8493829067
      671.5642007100         8.3358677251
      218.4199979000        10.0089622684
       77.5722497100         8.2783277553
       28.8888152800         2.9822029766
s   1 1.0 
      127.1052718500        26.9794296956
s   1 1.0 
       39.3395829600        11.1952141621
s   1 1.0 
        7.6740680000         3.2860890225
s   1 1.0 
        3.8745627600        -1.9682357562
s   1 1.0 
        1.8385832600         1.1253110111
s   1 1.0 
        0.5022905800        -0.4252324193
s   1 1.0 
        0.1796272300         0.1966478587
p   6 1.0 
      666.5042328400        13.1758105786
      157.6424169000        16.0544655669
       50.2625209800        17.4320614645
       18.5360781100        14.3789566857
        7.2940532800         7.6571902731
        2.9433249000         1.9874071930
p   1 1.0 
        1.0404970800         1.4979287975
p   1 1.0 
        0.3845641500        -0.4316692201
p   1 1.0 
        0.1306964300         0.1120133392
d   2 1.0 
        4.6100000000         7.5524217504
        1.0110000000         2.6539585854
d   1 1.0 
        0.3390000000         0.4293579962
f   1 1.0 
        0.7060000000         2.6050175686

[5D]
[7F]
[9G]
[MO]
 Sym=     1a
 Ene= -1.43623505084477E+03
 Spin= Alpha
 Occup= 2.000000
  1       0.076248302883
  2       0.090372767478
  3       0.168563859706
  4       0.298348170754
  5       0.349936941354
  6       0.180043049564
  7       0.011723935067
  8       0.003058389888
  9      -0.002218053664
 10       0.001455842650
 11      -0.000986610921
 12       0.000664824611
 13      -0.000442606306
 14       0.000297914894
 15      -0.000202767439
 16       0.000126727867
 17      -0.000047901322
 18       0.000011004238
 19      -0.000000074848
 20      -0.000000026558
 21       0.000000139065
 22       0.000000078003
 23       0.000000042474
 24      -0.000000156071
 25      -0.000000055205
 26      -0.000000029255
 27       0.000000108846
 28       0.000000057786
 29       0.000000035776
 30      -0.000000116415
 31      -0.000000074909
 32      -0.000000050622
 33       0.000000152737
 34       0.000000114600
 35       0.000000079500
 36      -0.000000234638
 37      -0.000000197557
 38      -0.000000135772
 39       0.000000405755
 40       0.000000350152
 41       0.000000236329
 42      -0.000000724362
 43      -0.000000563900
 44      -0.000000437224
 45       0.000001208382
 46       0.000000884545
 47       0.000000744317
 48      -0.000001961942
 49      -0.000000309031
 50      -0.000000248979
 51       0.000000677815
 52       0.000000049100
 53       0.000000031210
 54      -0.000000106974
 55       0.000000004823
 56      -0.000000004681
 57      -0.000000006710
 58      -0.000000001014
 59       0.000000002576
 60       0.000000064219
 61      -0.000000050768
 62      -0.000000088450
 63      -0.000000007041
 64       0.000000043784
 65      -0.000000193084
 66       0.000000155368
 67       0.000000266361
 68       0.000000022970
 69      -0.000000129436
 70       0.000000399286
 71      -0.000000322680
 72      -0.000000551451
 73      -0.000000048513
 74       0.000000266610
 75      -0.000000841117
 76       0.000000685916
 77       0.000001164117
 78       0.000000106161
 79      -0.000000556834
 80       0.000001676524
 81      -0.000001378394
 82      -0.000002319415
 83      -0.000000215864
 84       0.000001100247
 85      -0.000003866195
 86       0.000003174455
 87       0.000005321211
 88       0.000000474373
 89      -0.000002535530
 90       0.000001489813
 91      -0.000001266034
 92      -0.000002054456
 93      -0.000000219338
 94       0.000000942429
 95      -0.000000296135
 96       0.000000257921
 97       0.000000410488
 98       0.000000047973
 99      -0.000000182421
100       0.000000179623
101       0.000000325928
102       0.000000453618
103      -0.000000258298
104       0.000000674310
105       0.000001048466
106      -0.000000283107
107       0.000000642714
108       0.000001061500
109       0.000001531400
110      -0.000000852085
111       0.000002320199
112       0.000003588714
113      -0.000000957941
114       0.000000193568
115       0.000000363774
116       0.000000514658
117      -0.000000256299
118       0.000000695529
119       0.000001127050
120      -0.000000299027
121       0.000000094866
122      -0.000000110017
123       0.000000112724
124      -0.000000878733
125      -0.000001942444
126      -0.000001932040
127      -0.000001456098
128      -0.000005577217
129       0.000000066629
130       0.000000091958
131       0.000000095988
132      -0.000000459646
133      -0.000000651309
134      -0.000000676762
135      -0.000000845979
136      -0.000001165316
137      -0.000001224919
138      -0.000001955990
139      -0.000002998019
140      -0.000003176834
141       0.000000011406
142      -0.000000064642
143      -0.000000072460
144       0.000000007895
145      -0.000000035140
146       0.000000126641
147       0.000000745008
148       0.000001083297
149      -0.000000273954
150       0.000000648170
151      -0.000000310023
152       0.000000272004
153       0.000000407751
154      -0.000000265910
155       0.000000588888
156       0.000000272116
157      -0.000000038258
158       0.000000091398
159      -0.000000105963
160       0.000000108450
161      -0.000000843306
162      -0.000001857570
163      -0.000001834968
164      -0.000001408865
165      -0.000005665840
166       0.000000069058
167      -0.000000132910
168      -0.000000034657
169      -0.000000468020
170       0.000000901843
171       0.000000234307
172      -0.000000796138
173       0.000001538314
174       0.000000396008
175      -0.000002141456
176       0.000004225608
177       0.000001012480
178       0.000000068179
179       0.000000000042
180      -0.000000070795
181       0.000000045533
182       0.000000087541
183      -0.000000657196
184      -0.000000189772
185       0.000000569674
186      -0.000000645484
187      -0.000000982289
188       0.000000305482
189      -0.000000218853
190       0.000000395529
191       0.000000276170
192       0.000000285096
193       0.000000673933
194      -0.000000075335
195       0.000000093324
196      -0.000000108219
197       0.000000110846
198      -0.000000863446
199      -0.000001906519
200      -0.000001891541
201      -0.000001417761
202      -0.000005509624
203      -0.000000144823
204       0.000000016620
205      -0.000000033869
206       0.000001010767
207      -0.000000123078
208       0.000000229739
209       0.000001805213
210      -0.000000201522
211       0.000000418693
212       0.000004635622
213      -0.000000621629
214       0.000000893675
215       0.000000054405
216      -0.000000058996
217      -0.000000014547
218      -0.000000071576
219       0.000000020115
220      -0.000000677307
221       0.000000566377
222      -0.000000012796
223       0.000001144363
224      -0.000000346558
225       0.000000266674
226       0.000000458970
227      -0.000000074293
228      -0.000000343459
229       0.000000045333
230       0.000000592143
231      -0.000000292364
 Sym=     1a
 Ene= -2.32753296174972E+02
 Spin= Alpha
 Occup= 2.000000
  1      -0.027611817414
  2      -0.035819375342
  3      -0.068059085970
  4      -0.142039287313
  5      -0.207613074754
  6      -0.104970835902
  7       0.438701659506
  8       0.623296533373
  9       0.118992000001
 10       0.003456129284
 11      -0.002716475606
 12       0.001960357110
 13      -0.001486361063
 14       0.001051325115
 15      -0.000722576527
 16       0.000455324410
 17      -0.000172720935
 18       0.000039735993
 19       0.000001531743
 20       0.000001532319
 21      -0.000003639343
 22       0.000002006987
 23       0.000002128282
 24      -0.000004859591
 25       0.000001573436
 26       0.000001692407
 27      -0.000003832952
 28       0.000000205047
 29       0.000000148284
 30      -0.000000446123
 31      -0.000000089825
 32      -0.000000039906
 33       0.000000160331
 34       0.000000354987
 35       0.000000237201
 36      -0.000000719385
 37      -0.000000633181
 38      -0.000000434037
 39       0.000001298832
 40       0.000001203856
 41       0.000000803391
 42      -0.000002487648
 43      -0.000002028638
 44      -0.000001559646
 45       0.000004343990
 46       0.000003177310
 47       0.000002678486
 48      -0.000007051013
 49      -0.000001114042
 50      -0.000000899150
 51       0.000002444695
 52       0.000000177077
 53       0.000000112401
 54      -0.000000385830
 55       0.000000279980
 56      -0.000000157046
 57      -0.000000343358
 58       0.000000039890
 59       0.000000236862
 60       0.000000427486
 61      -0.000000378189
 62      -0.000000602788
 63      -0.000000081278
 64       0.000000260288
 65      -0.000000344555
 66       0.000000291183
 67       0.000000486217
 68       0.000000057575
 69      -0.000000221298
 70       0.000001348012
 71      -0.000001104401
 72      -0.000001868931
 73      -0.000000177820
 74       0.000000888794
 75      -0.000002998249
 76       0.000002450675
 77       0.000004153674
 78       0.000000383550
 79      -0.000001980839
 80       0.000006055103
 81      -0.000004984806
 82      -0.000008381537
 83      -0.000000784612
 84       0.000003969053
 85      -0.000013933235
 86       0.000011435964
 87       0.000019176814
 88       0.000001706188
 89      -0.000009141303
 90       0.000005396333
 91      -0.000004586480
 92      -0.000007441732
 93      -0.000000795041
 94       0.000003413074
 95      -0.000001075446
 96       0.000000936830
 97       0.000001490828
 98       0.000000174386
 99      -0.000000662364
100       0.000000633238
101       0.000001148786
102       0.000001598782
103      -0.000000911072
104       0.000002378073
105       0.000003696488
106      -0.000000998202
107       0.000002298965
108       0.000003791976
109       0.000005475552
110      -0.000003043762
111       0.000008293813
112       0.000012830501
113      -0.000003424803
114       0.000000699295
115       0.000001311857
116       0.000001856988
117      -0.000000924174
118       0.000002510347
119       0.000004067528
120      -0.000001078784
121       0.000000138404
122      -0.000000205445
123       0.000000359856
124      -0.000002819154
125      -0.000006483013
126      -0.000006565901
127      -0.000005012531
128      -0.000020007936
129       0.000000250567
130       0.000000348340
131       0.000000363665
132      -0.000001666274
133      -0.000002364559
134      -0.000002456326
135      -0.000003003788
136      -0.000004131155
137      -0.000004341424
138      -0.000007060521
139      -0.000010812185
140      -0.000011458604
141       0.000000032833
142      -0.000000250721
143      -0.000000290429
144       0.000000038869
145      -0.000000148219
146       0.000000462729
147       0.000002679542
148       0.000003899876
149      -0.000000992191
150       0.000002343327
151      -0.000001124361
152       0.000000989814
153       0.000001485434
154      -0.000000970443
155       0.000002147550
156       0.000000996173
157      -0.000000139763
158       0.000000133034
159      -0.000000197469
160       0.000000345584
161      -0.000002700493
162      -0.000006189394
163      -0.000006226169
164      -0.000004857967
165      -0.000020347847
166       0.000000259981
167      -0.000000500987
168      -0.000000130103
169      -0.000001694882
170       0.000003266078
171       0.000000848403
172      -0.000002817182
173       0.000005440795
174       0.000001402822
175      -0.000007728591
176       0.000015248853
177       0.000003654795
178       0.000000261153
179       0.000000010212
180      -0.000000266011
181       0.000000184814
182       0.000000342804
183      -0.000002359352
184      -0.000000691651
185       0.000002043341
186      -0.000002325743
187      -0.000003534743
188       0.000001108880
189      -0.000000793274
190       0.000001436281
191       0.000000998695
192       0.000001039427
193       0.000002451356
194      -0.000000276062
195       0.000000136041
196      -0.000000201950
197       0.000000353637
198      -0.000002768298
199      -0.000006359167
200      -0.000006423883
201      -0.000004878162
202      -0.000019767325
203      -0.000000547437
204       0.000000063714
205      -0.000000126656
206       0.000003666445
207      -0.000000447925
208       0.000000832003
209       0.000006397463
210      -0.000000712048
211       0.000001488060
212       0.000016722200
213      -0.000002238419
214       0.000003227646
215       0.000000213102
216      -0.000000224799
217      -0.000000046797
218      -0.000000292559
219       0.000000082819
220      -0.000002435465
221       0.000002036186
222      -0.000000056817
223       0.000004125615
224      -0.000001249307
225       0.000000969964
226       0.000001669807
227      -0.000000269555
228      -0.000001248580
229       0.000000170946
230       0.000002159573
231      -0.000001065042
 Sym=     1a
 Ene= -2.08679709695768E+02
 Spin= Alpha
 Occup= 2.000000
  1       0.000000017932
  2       0.000000023065
  3       0.000000044912
  4       0.000000089996
  5       0.000000141768
  6       0.000000052405
  7      -0.000000264386
  8      -0.000000428915
  9      -0.000000024415
 10      -0.000000146731
 11       0.000000285224
 12      -0.000000471269
 13       0.000000872230
 14      -0.000001405503
 15       0.000000677141
 16       0.000001114134
 17      -0.000000144083
 18      -0.000000056912
 19      -0.278395026141
 20      -0.100615835911
 21      -0.179673953125
 22      -0.385154485887
 23      -0.139200172887
 24      -0.248575705774
 25      -0.249938856276
 26      -0.090331386748
 27      -0.161308540572
 28      -0.015296289850
 29      -0.005528183552
 30      -0.009872347518
 31      -0.004324380149
 32      -0.001563070255
 33      -0.002790507271
 34       0.003006314004
 35       0.001086846039
 36       0.001939510506
 37      -0.001821299923
 38      -0.000658853615
 39      -0.001174113343
 40       0.001168733653
 41       0.000423583961
 42       0.000751952185
 43      -0.000763294944
 44      -0.000277534858
 45      -0.000489608050
 46       0.000409186521
 47       0.000148507642
 48       0.000262361809
 49      -0.000165104769
 50      -0.000059747653
 51      -0.000106336758
 52       0.000049409418
 53       0.000017866955
 54       0.000031910680
 55       0.000001405449
 56       0.000000794377
 57       0.000000580820
 58      -0.000000889437
 59      -0.000000106808
 60       0.000001164861
 61       0.000000233552
 62       0.000001659045
 63      -0.000002129138
 64       0.000001560436
 65      -0.000003812887
 66      -0.000000907654
 67      -0.000005056971
 68       0.000006522994
 69      -0.000004582963
 70       0.000009746189
 71       0.000002347721
 72       0.000012909676
 73      -0.000016635381
 74       0.000011677565
 75      -0.000021536555
 76      -0.000005193790
 77      -0.000028643812
 78       0.000036850650
 79      -0.000025932460
 80       0.000038684828
 81       0.000009356353
 82       0.000051638583
 83      -0.000066309669
 84       0.000046783068
 85      -0.000022161234
 86      -0.000004935642
 87      -0.000029204022
 88       0.000038046104
 89      -0.000026944872
 90       0.000002753094
 91       0.000000504317
 92       0.000003714741
 93      -0.000004902454
 94       0.000003569128
 95      -0.000000155312
 96      -0.000000005809
 97      -0.000000248856
 98       0.000000329761
 99      -0.000000271897
100       0.000008151160
101       0.000002698743
102      -0.000007307969
103      -0.000000479154
104      -0.000007909229
105       0.000004570229
106      -0.000003998896
107      -0.000001768519
108      -0.000000484365
109       0.000001161031
110      -0.000000203076
111       0.000001241850
112       0.000000079994
113       0.000001279442
114      -0.000005446427
115      -0.000001462761
116       0.000004326254
117       0.000000781740
118       0.000004976111
119      -0.000002632724
120       0.000002184446
121      -0.000000466022
122       0.000000680143
123      -0.000001222995
124       0.000009314745
125       0.000020242491
126       0.000017185065
127      -0.000013425270
128       0.000001434280
129      -0.000001811054
130      -0.000003101549
131      -0.000003099507
132       0.000011930572
133       0.000020032330
134       0.000020095844
135       0.000023718488
136       0.000037822749
137       0.000038383127
138       0.000001025450
139       0.000003686527
140       0.000003040200
141       0.000001477445
142       0.000004715716
143       0.000008314949
144      -0.000002726141
145       0.000004581160
146      -0.000008440756
147      -0.000027324089
148      -0.000046286124
149       0.000014691372
150      -0.000026792971
151       0.000005204397
152      -0.000004390789
153      -0.000008735387
154       0.000008042448
155      -0.000010807682
156      -0.000006283826
157      -0.000001135935
158       0.000000004283
159      -0.000000006250
160       0.000000011257
161      -0.000000086235
162      -0.000000189515
163      -0.000000168657
164       0.000000034466
165      -0.000000359271
166       0.000000176416
167       0.000000020980
168       0.000000097366
169      -0.000000834989
170      -0.000000035545
171      -0.000000431293
172       0.000000021660
173       0.000000465198
174       0.000000193994
175       0.000000269951
176       0.000000376858
177       0.000000159070
178       0.000000290452
179      -0.000000112532
180       0.000000736780
181      -0.000000860174
182       0.000000965676
183      -0.000001017926
184       0.000000320897
185      -0.000002319666
186       0.000002705752
187      -0.000003254837
188      -0.000001325005
189      -0.000001645228
190       0.000001162730
191      -0.000002469721
192      -0.000000666843
193       0.000001399807
194       0.000004324517
195       0.000000452796
196      -0.000000660720
197       0.000001187651
198      -0.000009033258
199      -0.000019590511
200      -0.000016532923
201       0.000013285937
202      -0.000002549640
203      -0.000004550029
204       0.000000785511
205      -0.000000826515
206       0.000029355185
207      -0.000004921220
208       0.000005479901
209       0.000055616080
210      -0.000008519276
211       0.000011068947
212       0.000005312568
213      -0.000001669591
214       0.000000347645
215       0.000005099308
216      -0.000003193441
217       0.000000378865
218      -0.000008667066
219       0.000003254640
220      -0.000027833364
221       0.000018645746
222      -0.000002563868
223       0.000048367469
224      -0.000017055500
225       0.000003906890
226       0.000009843308
227      -0.000002095413
228      -0.000004623217
229       0.000002115960
230       0.000011446278
231      -0.000008324623
 Sym=     1a
 Ene= -2.08679706933067E+02
 Spin= Alpha
 Occup= 2.000000
  1       0.000000347715
  2       0.000000442753
  3       0.000000883932
  4       0.000001694849
  5       0.000002856250
  6       0.000000747060
  7      -0.000004420940
  8      -0.000009231340
  9       0.000000981054
 10      -0.000006326111
 11       0.000011386660
 12      -0.000017574256
 13       0.000027286269
 14      -0.000035147499
 15       0.000017004398
 16       0.000018404305
 17      -0.000009316715
 18       0.000002031112
 19       0.144073441747
 20       0.120707465180
 21      -0.290828976111
 22       0.199323709513
 23       0.166997686601
 24      -0.402358413586
 25       0.129346526851
 26       0.108368748981
 27      -0.261100815641
 28       0.007920462297
 29       0.006638937210
 30      -0.015990532022
 31       0.002230465926
 32       0.001863641678
 33      -0.004498817140
 34      -0.001542425901
 35      -0.001283171425
 36       0.003107052452
 37       0.000918037161
 38       0.000752511884
 39      -0.001841267871
 40      -0.000560652619
 41      -0.000439866976
 42       0.001110430109
 43       0.000336651508
 44       0.000242703951
 45      -0.000651521410
 46      -0.000183031276
 47      -0.000133256756
 48       0.000354990642
 49       0.000082034464
 50       0.000066187673
 51      -0.000163759013
 52      -0.000025802758
 53      -0.000021780833
 54       0.000052202325
 55       0.000000896796
 56      -0.000000777735
 57      -0.000000767023
 58       0.000000155883
 59       0.000000447826
 60      -0.000000071800
 61       0.000000324982
 62       0.000000234250
 63       0.000000382509
 64       0.000000145970
 65       0.000000054841
 66      -0.000000877171
 67      -0.000000472806
 68      -0.000001139397
 69      -0.000000567875
 70      -0.000000212079
 71       0.000002343687
 72       0.000001200408
 73       0.000002874484
 74       0.000001459312
 75       0.000000600709
 76      -0.000005341462
 77      -0.000002709032
 78      -0.000006319817
 79      -0.000003210016
 80      -0.000000979872
 81       0.000009523539
 82       0.000004576224
 83       0.000011231107
 84       0.000005889134
 85      -0.000002595903
 86      -0.000002901726
 87       0.000001985959
 88      -0.000006059664
 89      -0.000005567691
 90       0.000000388860
 91       0.000000580625
 92      -0.000000559210
 93       0.000000845783
 94       0.000001024800
 95      -0.000000043102
 96      -0.000000062208
 97       0.000000122657
 98      -0.000000048966
 99      -0.000000128084
100       0.000000492283
101      -0.000002619093
102      -0.000000833356
103       0.000001756175
104      -0.000000616530
105      -0.000001515222
106       0.000000857866
107       0.000000551890
108       0.000002315752
109       0.000003064017
110      -0.000000946556
111       0.000002099856
112       0.000004739819
113      -0.000001337346
114      -0.000000895584
115       0.000003874686
116       0.000004347354
117      -0.000000233798
118      -0.000001955534
119       0.000002310748
120      -0.000001035275
121      -0.000000059426
122       0.000000086682
123      -0.000000155042
124       0.000001157915
125       0.000002426048
126       0.000001759904
127      -0.000004368684
128      -0.000006908341
129      -0.000000508269
130      -0.000000729897
131      -0.000000183250
132       0.000003049264
133       0.000004469692
134       0.000001749309
135       0.000005051361
136       0.000007903175
137       0.000005164754
138       0.000001380084
139       0.000001319537
140      -0.000006564905
141      -0.000001363823
142       0.000000729918
143       0.000000873409
144      -0.000000708430
145       0.000001807775
146       0.000003417859
147      -0.000004679748
148      -0.000006493229
149       0.000003222030
150      -0.000007849406
151       0.000004641401
152       0.000001992354
153       0.000003712357
154       0.000000684911
155      -0.000003290676
156      -0.000003660741
157       0.000001003465
158       0.000000061156
159      -0.000000089288
160       0.000000161402
161      -0.000001252750
162      -0.000002815208
163      -0.000002700839
164      -0.000001084834
165      -0.000007738097
166       0.000000032503
167      -0.000000543803
168       0.000000255923
169      -0.000000421696
170       0.000003161887
171      -0.000001120237
172      -0.000001377991
173       0.000004782088
174      -0.000000555848
175       0.000000043020
176       0.000006792431
177      -0.000004042869
178       0.000001134809
179      -0.000000827723
180       0.000000765281
181       0.000001462279
182       0.000000409000
183      -0.000004178122
184       0.000001942461
185      -0.000001415417
186      -0.000005241380
187      -0.000002681100
188      -0.000002179102
189      -0.000001462350
190       0.000004287795
191      -0.000000716099
192      -0.000003527856
193       0.000002134922
194      -0.000003864326
195      -0.000000075935
196       0.000000110750
197      -0.000000198229
198       0.000001484192
199       0.000003126405
200       0.000002333155
201      -0.000004900870
202      -0.000006652502
203       0.000000844121
204      -0.000000338208
205       0.000000564421