[Molden Format]
[Title]
 Molden file created by orca_2mkl for BaseName=/home/smirnovaanastasia2304_2125/_scratch/HERBD/Er_OH_cc

[Atoms] AU
Er   1  68         -0.2757828525         0.4008600459        -0.4340077320 
O    2   8         -1.8015042694         3.6746329386        -0.1843087693 
O    3   8         -1.7685776812        -2.3205931411        -2.2789265696 
O    4   8          2.8060637849        -0.2406226081         1.2861173711 
H    5   1          4.3488399801        -0.5552128765         2.1478154807 
H    6   1         -2.5638745938         5.2947650731        -0.0480462870 
H    7   1         -2.5052212741        -3.6785673485        -3.1920630245 
[GTO]
  1 0
s   6 1.0 
  1280982.1879360001      2520.6148364459
   569325.4168600000      -681.3957563930
   253033.5186050000      1460.6740705580
   112459.3416020000       312.1436294738
    49981.9296010000       863.9077130156
    22214.1909340000       629.2071075609
s   1 1.0 
     9872.9737480000       705.9047087998
s   1 1.0 
     4387.9883330000       384.2458541670
s   1 1.0 
     1950.2170370000       209.1569507843
s   1 1.0 
      866.7631270000       113.8506234070
s   1 1.0 
      385.2280570000        61.9724298993
s   1 1.0 
      171.2124700000        33.7335181159
s   1 1.0 
       76.0944310000        18.3622014494
s   1 1.0 
       33.8197470000         9.9951164432
s   1 1.0 
       15.0309990000         5.4406523584
s   1 1.0 
        6.6804440000         2.9615160324
s   1 1.0 
        2.9690860000         1.6120450527
s   1 1.0 
        1.3195940000         0.8774862934
s   1 1.0 
        0.5864860000         0.4776429032
s   1 1.0 
        0.2606610000         0.2599962805
s   1 1.0 
        0.1158490000         0.1415237440
s   1 1.0 
        0.0514880000         0.0770352700
s   1 1.0 
        0.0228840000         0.0419333005
p   5 1.0 
    17602.8164910000      4022.4508342837
     7041.1265960000      1545.5382950479
     2816.4506390000      2442.5227289582
     1126.5802550000      2329.4326719729
      450.6321020000      2190.8967379529
p   1 1.0 
      180.2528410000       941.4401934414
p   1 1.0 
       72.1011360000       299.4799294147
p   1 1.0 
       28.8404550000        95.2670511641
p   1 1.0 
       11.5361820000        30.3052388827
p   1 1.0 
        4.6144730000         9.6403482870
p   1 1.0 
        1.8457890000         3.0666743077
p   1 1.0 
        0.7383160000         0.9755351853
p   1 1.0 
        0.2953260000         0.3103253057
p   1 1.0 
        0.1181310000         0.0987176796
p   1 1.0 
        0.0472520000         0.0314025801
p   1 1.0 
        0.0189010000         0.0099895532
d   4 1.0 
     1280.6903600000      6403.7653961462
      465.7055860000      6055.6208623721
      169.3474860000      5668.4317575873
       61.5809040000      3092.7344183634
d   1 1.0 
       22.3930560000       657.1559952900
d   1 1.0 
        8.1429290000       111.9015797720
d   1 1.0 
        2.9610650000        19.0547818108
d   1 1.0 
        1.0767510000         3.2446796886
d   1 1.0 
        0.3915460000         0.5525097787
d   1 1.0 
        0.1423800000         0.0940818424
d   1 1.0 
        0.0517750000         0.0160206551
d   1 1.0 
        0.0188270000         0.0027279540
f   4 1.0 
       37.3757410000      2115.7106758334
       12.4585800000       583.6684471563
        4.1528600000        72.9133455825
        1.3842870000         4.2858523755
f   1 1.0 
        0.4614290000         1.0005437237
f   1 1.0 
        0.1538100000         0.0844725037

  2 0
s   6 1.0 
    27032.3826310000         1.4645050749
     4052.3871392000         1.8244031008
      922.3272271000         2.8547160967
      261.2407098900         4.3654874290
       85.3546413500         5.8940772662
       31.0350352400         6.2963020147
s   1 1.0 
       12.2608607300         4.6698272139
s   1 1.0 
        4.9987076000         2.3826123703
s   1 1.0 
        1.1703108200         0.8019291632
s   1 1.0 
        0.4647474100        -0.4011648063
s   1 1.0 
        0.1850453600         0.2010799377
p   4 1.0 
       63.2749548000         3.0898340730
       14.6270493800         3.3923831935
        4.4501223500         2.9482801524
        1.5275799600         1.7113350234
p   1 1.0 
        0.5293511800         0.6436057935
p   1 1.0 
        0.1747842100         0.1610897223
d   1 1.0 
        2.3140000000        12.3767310624
d   1 1.0 
        0.6450000000         1.3234257612
f   1 1.0 
        1.4280000000        12.7097950062

  3 0
s   6 1.0 
    27032.3826310000         1.4645050749
     4052.3871392000         1.8244031008
      922.3272271000         2.8547160967
      261.2407098900         4.3654874290
       85.3546413500         5.8940772662
       31.0350352400         6.2963020147
s   1 1.0 
       12.2608607300         4.6698272139
s   1 1.0 
        4.9987076000         2.3826123703
s   1 1.0 
        1.1703108200         0.8019291632
s   1 1.0 
        0.4647474100        -0.4011648063
s   1 1.0 
        0.1850453600         0.2010799377
p   4 1.0 
       63.2749548000         3.0898340730
       14.6270493800         3.3923831935
        4.4501223500         2.9482801524
        1.5275799600         1.7113350234
p   1 1.0 
        0.5293511800         0.6436057935
p   1 1.0 
        0.1747842100         0.1610897223
d   1 1.0 
        2.3140000000        12.3767310624
d   1 1.0 
        0.6450000000         1.3234257612
f   1 1.0 
        1.4280000000        12.7097950062

  4 0
s   6 1.0 
    27032.3826310000         1.4645050749
     4052.3871392000         1.8244031008
      922.3272271000         2.8547160967
      261.2407098900         4.3654874290
       85.3546413500         5.8940772662
       31.0350352400         6.2963020147
s   1 1.0 
       12.2608607300         4.6698272139
s   1 1.0 
        4.9987076000         2.3826123703
s   1 1.0 
        1.1703108200         0.8019291632
s   1 1.0 
        0.4647474100        -0.4011648063
s   1 1.0 
        0.1850453600         0.2010799377
p   4 1.0 
       63.2749548000         3.0898340730
       14.6270493800         3.3923831935
        4.4501223500         2.9482801524
        1.5275799600         1.7113350234
p   1 1.0 
        0.5293511800         0.6436057935
p   1 1.0 
        0.1747842100         0.1610897223
d   1 1.0 
        2.3140000000        12.3767310624
d   1 1.0 
        0.6450000000         1.3234257612
f   1 1.0 
        1.4280000000        12.7097950062

  5 0
s   3 1.0 
       34.0613410000         0.2556300129
        5.1235746000         0.4613599287
        1.1646626000         0.6811215012
s   1 1.0 
        0.3272304100         0.3083545312
s   1 1.0 
        0.1030724100         0.1296483265
p   1 1.0 
        0.8000000000         1.0784563492

  6 0
s   3 1.0 
       34.0613410000         0.2556300129
        5.1235746000         0.4613599287
        1.1646626000         0.6811215012
s   1 1.0 
        0.3272304100         0.3083545312
s   1 1.0 
        0.1030724100         0.1296483265
p   1 1.0 
        0.8000000000         1.0784563492

  7 0
s   3 1.0 
       34.0613410000         0.2556300129
        5.1235746000         0.4613599287
        1.1646626000         0.6811215012
s   1 1.0 
        0.3272304100         0.3083545312
s   1 1.0 
        0.1030724100         0.1296483265
p   1 1.0 
        0.8000000000         1.0784563492

[5D]
[7F]
[9G]
[MO]
 Sym=     1a
 Ene= -2.11977526721929E+03
 Spin= Alpha
 Occup= 1.000000
  1       0.093919124256
  2       0.102779601932
  3       0.177281335406
  4       0.300655189797
  5       0.335098040616
  6       0.167596826040
  7       0.009241191103
  8       0.003358638908
  9      -0.002447117508
 10       0.001623843721
 11      -0.001097544959
 12       0.000746413162
 13      -0.000514333250
 14       0.000378275121
 15      -0.000334908302
 16       0.000333841424
 17      -0.000053689970
 18       0.000013671347
 19      -0.000000035664
 20       0.000000031198
 21      -0.000000034050
 22       0.000000018801
 23      -0.000000018891
 24       0.000000024960
 25      -0.000000009275
 26       0.000000012803
 27      -0.000000018334
 28      -0.000000001747
 29      -0.000000007930
 30       0.000000015685
 31       0.000000014295
 32       0.000000004831
 33      -0.000000017284
 34      -0.000000031680
 35      -0.000000003358
 36       0.000000024724
 37       0.000000056061
 38       0.000000008102
 39      -0.000000048010
 40      -0.000000083707
 41      -0.000000033554
 42       0.000000113662
 43       0.000000169671
 44       0.000000081741
 45      -0.000000253721
 46       0.000001762268
 47      -0.000001818089
 48       0.000002292287
 49      -0.000000191490
 50       0.000000215479
 51      -0.000000272100
 52       0.000000068268
 53      -0.000000067399
 54       0.000000084020
 55      -0.000000034615
 56       0.000000047256
 57       0.000000027751
 58      -0.000000012366
 59      -0.000000017934
 60       0.000000213826
 61      -0.000000290968
 62      -0.000000176056
 63       0.000000080896
 64       0.000000109317
 65      -0.000000513849
 66       0.000000699298
 67       0.000000423861
 68      -0.000000195126
 69      -0.000000262425
 70       0.000001095919
 71      -0.000001491695
 72      -0.000000904495
 73       0.000000416393
 74       0.000000559524
 75      -0.000002363379
 76       0.000003219454
 77       0.000001950390
 78      -0.000000895214
 79      -0.000001206921
 80       0.000004903245
 81      -0.000006682836
 82      -0.000004043540
 83       0.000001852175
 84       0.000002505964
 85      -0.000024672404
 86       0.000033972554
 87       0.000020321977
 88      -0.000008961910
 89      -0.000012606226
 90       0.000000860412
 91      -0.000000998304
 92      -0.000000736951
 93       0.000000512362
 94       0.000000443074
 95      -0.000000329769
 96       0.000000411711
 97       0.000000281543
 98      -0.000000161640
 99      -0.000000169341
100      -0.000000032871
101       0.000000078067
102      -0.000000217545
103       0.000000294554
104      -0.000000308862
105      -0.000000523475
106       0.000000148293
107       0.000000240540
108      -0.000000556394
109       0.000001558390
110      -0.000002120170
111       0.000002215126
112       0.000003753170
113      -0.000001067115
114      -0.000001366894
115       0.000003170218
116      -0.000008950310
117       0.000012158309
118      -0.000012702333
119      -0.000021524963
120       0.000006128769
121       0.000000294867
122      -0.000001364978
123       0.000002606105
124      -0.000008843243
125      -0.000021040323
126      -0.000066105260
127      -0.000000280681
128       0.000000592541
129       0.000000044004
130       0.000001229483
131      -0.000002556219
132      -0.000000167624
133      -0.000017434403
134       0.000037815585
135       0.000003190787
136       0.000000177139
137      -0.000000223557
138      -0.000000137920
139       0.000000067599
140       0.000000103459
141      -0.000002020993
142       0.000000499816
143       0.000000731490
144      -0.000001881720
145      -0.000002321254
146       0.000000017482
147      -0.000000041710
148       0.000000064952
149       0.000000049949
150      -0.000000019737
151       0.000000067586
152      -0.000000023427
153       0.000000293526
154      -0.000001358563
155       0.000002593761
156      -0.000008830955
157      -0.000021172076
158      -0.000066847623
159      -0.000000267775
160      -0.000000482397
161      -0.000000331951
162       0.000001271184
163       0.000002205402
164       0.000001545772
165      -0.000016895304
166      -0.000031835671
167      -0.000021163181
168       0.000000153752
169      -0.000000216363
170      -0.000000130947
171       0.000000051036
172       0.000000070330
173      -0.000000775687
174       0.000001745199
175       0.000002401401
176      -0.000001184022
177       0.000001429393
178      -0.000000061225
179       0.000000015086
180      -0.000000006998
181      -0.000000031898
182       0.000000060088
183       0.000000012767
184       0.000000024464
185       0.000000289125
186      -0.000001337612
187       0.000002553308
188      -0.000008763183
189      -0.000021348247
190      -0.000068702194
191       0.000000526787
192      -0.000000107026
193       0.000000290899
194      -0.000002841726
195       0.000000570727
196      -0.000001577679
197       0.000035838063
198      -0.000007549976
199       0.000020015595
200       0.000000127170
201      -0.000000158510
202      -0.000000117180
203       0.000000071716
204       0.000000057225
205      -0.000000834787
206       0.000002584499
207      -0.000000093626
208       0.000001605583
209      -0.000000954256
210       0.000000031500
211      -0.000000000886
212      -0.000000020476
213      -0.000000023823
214       0.000000003015
215      -0.000000006095
216      -0.000000011985
217      -0.000000286215
218      -0.000008904080
219      -0.000006441342
220       0.000000878072
221      -0.000000150596
222       0.000000491461
223      -0.000000364915
224      -0.000009858940
225      -0.000006306205
226      -0.000000593235
227       0.000001167614
228       0.000000106728
229      -0.000000341370
230      -0.000009599652
231      -0.000006355874
232      -0.000000527309
233      -0.000000910126
234      -0.000000631543
 Sym=     1a
 Ene= -3.61404238459474E+02
 Spin= Alpha
 Occup= 1.000000
  1      -0.035699929991
  2      -0.043194770695
  3      -0.075349232054
  4      -0.150792979463
  5      -0.203034842635
  6      -0.070363918283
  7       0.485039852018
  8       0.589840177656
  9       0.087189222728
 10       0.004675440151
 11      -0.004145960999
 12       0.002972402105
 13      -0.002192329452
 14       0.001665825494
 15      -0.001490213749
 16       0.001492987426
 17      -0.000239491696
 18       0.000061034947
 19      -0.000000495595
 20       0.000000391544
 21      -0.000000197608
 22      -0.000000736766
 23       0.000000577999
 24      -0.000000314411
 25      -0.000000564773
 26       0.000000468754
 27      -0.000000277211
 28      -0.000000219537
 29       0.000000152960
 30      -0.000000116359
 31       0.000000113938
 32      -0.000000031855
 33      -0.000000007452
 34      -0.000000158776
 35       0.000000005237
 36       0.000000081955
 37       0.000000262114
 38       0.000000021827
 39      -0.000000193985
 40      -0.000000358876
 41      -0.000000155351
 42       0.000000509914
 43       0.000000700796
 44       0.000000402784
 45      -0.000001174282
 46       0.000007905043
 47      -0.000008153133
 48       0.000010282400
 49      -0.000000863897
 50       0.000000970112
 51      -0.000001223902
 52       0.000000308381
 53      -0.000000303781
 54       0.000000378339
 55      -0.000000482947
 56       0.000000757833
 57       0.000000277819
 58       0.000000033602
 59      -0.000000291462
 60       0.000000389297
 61      -0.000000534920
 62      -0.000000345804
 63       0.000000173179
 64       0.000000185666
 65      -0.000001946415
 66       0.000002660682
 67       0.000001612673
 68      -0.000000739084
 69      -0.000000988873
 70       0.000004620504
 71      -0.000006299564
 72      -0.000003815488
 73       0.000001750579
 74       0.000002356708
 75      -0.000010608924
 76       0.000014465669
 77       0.000008754942
 78      -0.000004006508
 79      -0.000005416827
 80       0.000022180340
 81      -0.000030261779
 82      -0.000018286977
 83       0.000008347181
 84       0.000011336184
 85      -0.000110689086
 86       0.000152421127
 87       0.000091170028
 88      -0.000040198602
 89      -0.000056555854
 90       0.000003868126
 91      -0.000004483490
 92      -0.000003313977
 93       0.000002308384
 94       0.000001991987
 95      -0.000001484844
 96       0.000001852998
 97       0.000001267824
 98      -0.000000728750
 99      -0.000000762519
100      -0.000000158332
101       0.000000373209
102      -0.000001041999
103       0.000001408883
104      -0.000001481894
105      -0.000002506784
106       0.000000712648
107       0.000001114598
108      -0.000002559460
109       0.000007164930
110      -0.000009765560
111       0.000010196168
112       0.000017268413
113      -0.000004913269
114      -0.000006142247
115       0.000014242599
116      -0.000040209684
117       0.000054623649
118      -0.000057067444
119      -0.000096702933
120       0.000027535603
121       0.000001166509
122      -0.000005760202
123       0.000011432894
124      -0.000039737912
125      -0.000094409833
126      -0.000296134552
127      -0.000001306470
128       0.000002762292
129       0.000000206002
130       0.000005488603
131      -0.000011418564
132      -0.000000749172
133      -0.000078182976
134       0.000169598161
135       0.000014317574
136       0.000000854328
137      -0.000000985523
138      -0.000000628329
139       0.000000377294
140       0.000000549476
141      -0.000009266800
142       0.000002212095
143       0.000003326280
144      -0.000008674406
145      -0.000010684608
146       0.000000092313
147      -0.000000219716
148       0.000000364770
149       0.000000230746
150      -0.000000070074
151       0.000000408717
152      -0.000000135458
153       0.000001161269
154      -0.000005733321
155       0.000011380211
156      -0.000039690609
157      -0.000095006174
158      -0.000299457256
159      -0.000001248731
160      -0.000002254150
161      -0.000001548806
162       0.000005681383
163       0.000009865014
164       0.000006911780
165      -0.000075754983
166      -0.000142779507
167      -0.000094902416
168       0.000000698434
169      -0.000001010020
170      -0.000000673405
171       0.000000275832
172       0.000000239106
173      -0.000003523535
174       0.000007973967
175       0.000011054142
176      -0.000005463739
177       0.000006641964
178      -0.000000332467
179       0.000000076426
180      -0.000000009415
181      -0.000000201703
182       0.000000355238
183       0.000000133047
184       0.000000113904
185       0.000001144159
186      -0.000005645943
187       0.000011207707
188      -0.000039410369
189      -0.000095816844
190      -0.000307767622
191       0.000002471642
192      -0.000000503411
193       0.000001365599
194      -0.000012743278
195       0.000002561569
196      -0.000007074403
197       0.000160698714
198      -0.000033858499
199       0.000089749330
200       0.000000586451
201      -0.000000801850
202      -0.000000500116
203       0.000000235107
204       0.000000291170
205      -0.000003811142
206       0.000011907732
207      -0.000000490038
208       0.000007477192
209      -0.000004399210
210       0.000000206613
211      -0.000000016113
212      -0.000000085911
213      -0.000000206756
214       0.000000060188
215       0.000000043599
216      -0.000000101949
217      -0.000001364531
218      -0.000040220470
219      -0.000028884536
220       0.000004048532
221      -0.000000696910
222       0.000002266149
223      -0.000001716005
224      -0.000044526942
225      -0.000028278578
226      -0.000002720378
227       0.000005359553
228       0.000000487911
229      -0.000001610832
230      -0.000043357111
231      -0.000028500993
232      -0.000002422622
233      -0.000004181438
234      -0.000002901662
 Sym=     1a
 Ene= -3.20475708833629E+02
 Spin= Alpha
 Occup= 1.000000
  1       0.000000081029
  2       0.000000098429
  3       0.000000173042
  4       0.000000345434
  5       0.000000467935
  6       0.000000147208
  7      -0.000001222270
  8      -0.000001656131
  9       0.000000748236
 10      -0.000000648745
 11       0.000000993766
 12      -0.000001935115
 13       0.000003809885
 14      -0.000008810285
 15       0.000036751585
 16      -0.000092234719
 17       0.000011077990
 18      -0.000002838341
 19      -0.310176755847
 20       0.099346199720
 21      -0.153594250569
 22      -0.413112929664
 23       0.132315459507
 24      -0.204566488198
 25      -0.259130643842
 26       0.082996690132
 27      -0.128317096712
 28      -0.012241884046
 29       0.003920758921
 30      -0.006061919427
 31      -0.004920326222
 32       0.001576317715
 33      -0.002436553309
 34       0.003386853959
 35      -0.001085512070
 36       0.001677275047
 37      -0.002081930809
 38       0.000668184642
 39      -0.001031254683
 40       0.001354737880
 41      -0.000436296247
 42       0.000671542110
 43      -0.000928376154
 44       0.000300830226
 45      -0.000460651247
 46       0.000437816753
 47      -0.000149178739
 48       0.000212975869
 49      -0.000158073838
 50       0.000051572520
 51      -0.000077607433
 52       0.000040122760
 53      -0.000012811256
 54       0.000019690964
 55      -0.000000022866
 56       0.000000270022
 57      -0.000000178513
 58       0.000000337096
 59      -0.000000176084
 60      -0.000000589461
 61      -0.000001883335
 62       0.000001503868
 63      -0.000003419839
 64       0.000000236024
 65       0.000001766892
 66       0.000005895968
 67      -0.000004610896
 68       0.000010455077
 69      -0.000000811008
 70      -0.000004156483
 71      -0.000013857103
 72       0.000010827839
 73      -0.000024623401
 74       0.000001865934
 75       0.000009165697
 76       0.000030586654
 77      -0.000023922001
 78       0.000054390385
 79      -0.000004144093
 80      -0.000016944295
 81      -0.000056801485
 82       0.000044477989
 83      -0.000101038933
 84       0.000007824885
 85       0.000014024708
 86       0.000003757186
 87      -0.000016774995
 88       0.000028995168
 89       0.000006183978
 90       0.000000847956
 91       0.000006896794
 92      -0.000004246558
 93       0.000010105362
 94      -0.000001783930
 95      -0.000001421567
 96      -0.000006291143
 97       0.000004360356
 98      -0.000010285218
 99       0.000001025361
100      -0.000003912903
101      -0.000000325717
102       0.000002620836
103       0.000003906543
104       0.000000180005
105       0.000001577409
106       0.000001377540
107       0.000027665287
108       0.000002191754
109      -0.000018101951
110      -0.000027716954
111      -0.000000903727
112      -0.000010436135
113      -0.000009983292
114      -0.000013209174
115      -0.000002480954
116       0.000012460969
117       0.000010943490
118       0.000004152582
119       0.000012357816
120       0.000003040492
121      -0.000000705719
122       0.000003706687
123      -0.000008062580
124       0.000031735898
125       0.000040899411
126       0.000104563526
127       0.000003086943
128      -0.000008713219
129      -0.000001235775
130      -0.000027897950
131       0.000065473209
132       0.000006684000
133      -0.000026148374
134       0.000038360205
135      -0.000001209824
136      -0.000000628492
137      -0.000000560712
138       0.000001294722
139      -0.000002248467
140       0.000000154276
141       0.000009868988
142       0.000003295173
143      -0.000007771788
144       0.000018576517
145       0.000008296344
146      -0.000001584188
147       0.000000680356
148      -0.000002945280
149      -0.000001751794
150      -0.000001439969
151      -0.000003353126
152       0.000003386665
153      -0.000000457539
154       0.000002401163
155      -0.000005218884
156       0.000020658902
157       0.000026675330
158       0.000064782390
159       0.000001485322
160       0.000005233121
161       0.000002719620
162      -0.000016016475
163      -0.000036611638
164      -0.000022370226
165      -0.000019922517
166      -0.000016598681
167      -0.000017708849
168      -0.000000666817
169      -0.000000821741
170       0.000001028812
171      -0.000002250183
172      -0.000000204771
173       0.000004283647
174       0.000000781897
175      -0.000011057170
176       0.000014249048
177      -0.000003829713
178       0.000001723120
179       0.000000425557
180       0.000000169154
181       0.000003102181
182      -0.000000709770
183      -0.000001945812
184      -0.000002557042
185       0.000000653513
186      -0.000003595916
187       0.000008513364
188      -0.000039777774
189      -0.000039317285
190      -0.000109483947
191       0.000012707107
192      -0.000002480680
193       0.000007182568
194      -0.000112091619
195       0.000022689771
196      -0.000062840003
197      -0.000121148179
198       0.000025857452
199      -0.000067039379
200      -0.000000172092
201      -0.000000445917
202       0.000000176709
203      -0.000000582016
204      -0.000000100846
205      -0.000003304337
206       0.000020294435
207      -0.000004344322
208       0.000017940653
209      -0.000006320733
210       0.000003729532
211      -0.000000837385
212       0.000000015029
213      -0.000005581122
214       0.000001996563
215       0.000003487834
216      -0.000002205999
217      -0.000006597511
218       0.000157615226
219       0.000054028705
220      -0.000037875608
221       0.000007096579
222      -0.000021541731
223       0.000004796335
224      -0.000074309784
225      -0.000026898103
226      -0.000004938730
227       0.000021084901
228       0.000004654879
229       0.000003247160
230      -0.000046533727
231      -0.000016835697
232      -0.000000696431
233      -0.000013654981
234      -0.000005144991
 Sym=     1a
 Ene= -3.20475643896600E+02
 Spin= Alpha
 Occup= 1.000000
  1       0.000000028434
  2       0.000000034519
  3       0.000000060459
  4       0.000000121081
  5       0.000000163595
  6       0.000000053251
  7      -0.000000422220
  8      -0.000000534043
  9       0.000000136935
 10      -0.000000117525
 11       0.000000182443
 12      -0.000000355230
 13       0.000000710249
 14      -0.000001668949
 15       0.000006519172
 16      -0.000015501388
 17       0.000001910574
 18      -0.000000479542
 19       0.038866190153
 20       0.331250977111
 21       0.135767538861
 22       0.051764486574
 23       0.441180725226
 24       0.180823675946
 25       0.032469918908
 26       0.276736496124
 27       0.113424087403
 28       0.001534075268
 29       0.013072906154
 30       0.005358020100
 31       0.000616219625
 32       0.005255761965
 33       0.002154282402
 34      -0.000423790179
 35      -0.003619087613
 36      -0.001483579818
 37       0.000259771619
 38       0.002227301964
 39       0.000913373731
 40      -0.000167777397
 41      -0.001453586074
 42      -0.000596828032
 43       0.000113335871
 44       0.001001928269
 45       0.000412147405
 46      -0.000047509707
 47      -0.000510822506
 48      -0.000203717263
 49       0.000019059250
 50       0.000174231174
 51       0.000070403689
 52      -0.000005041157
 53      -0.000043370182
 54      -0.000017480675
 55      -0.000000070958
 56      -0.000000057684
 57       0.000000091624
 58      -0.000000208267
 59       0.000000016361
 60      -0.000001011582
 61      -0.000000947037
 62      -0.000001758522
 63      -0.000000174725
 64      -0.000003404009
 65       0.000003022424
 66       0.000002858791
 67       0.000005293607
 68       0.000000487482
 69       0.000010332235
 70      -0.000007183510
 71      -0.000006786355
 72      -0.000012518884
 73      -0.000001223171
 74      -0.000024425044
 75       0.000015852666
 76       0.000014947712
 77       0.000027632278
 78       0.000002682178
 79       0.000053866221
 80      -0.000029317292
 81      -0.000027549319
 82      -0.000051172166
 83      -0.000004813019
 84      -0.000099623255
 85       0.000013626407
 86       0.000011356909
 87       0.000016590870
 88       0.000006574092
 89       0.000039690846
 90       0.000002198918
 91       0.000002229819
 92       0.000004680875
 93      -0.000000237305
 94       0.000008485197
 95      -0.000002852103
 96      -0.000002790044
 97      -0.000005198825
 98      -0.000000354432
 99      -0.000009974266
100       0.000003874535
101      -0.000002043520
102       0.000002220480
103       0.000002588585
104      -0.000003297114
105       0.000001449998
106      -0.000001715193
107      -0.000026731756
108       0.000014046266
109      -0.000015225582
110      -0.000017686164
111       0.000022703718
112      -0.000009893942
113       0.000011752973
114       0.000015871697
115      -0.000008146313
116       0.000010283051
117       0.000011661094
118      -0.000012016029
119       0.000007080240
120      -0.000008467892
121      -0.000000885736
122       0.000004678506
123      -0.000010281407
124       0.000041243312
125       0.000051804969
126       0.000138069066
127       0.000005919157
128      -0.000011111789
129      -0.000000404653
130      -0.000043815757
131       0.000089572065
132       0.000005800932
133      -0.000024117419
134       0.000065757066
135       0.000010051697
136      -0.000000898666
137       0.000000005879
138      -0.000000809934
139      -0.000000004680
140      -0.000002114858
141       0.000013804633
142       0.000000554944
143       0.000001804570
144       0.000010576451
145       0.000022583764
146      -0.000000122111
147       0.000002483119
148      -0.000004040459
149      -0.000000017999
150       0.000000014961
151      -0.000006175995
152      -0.000000392935
153       0.000000894151
154      -0.000004763732
155       0.000010640282
156      -0.000044200802
157      -0.000052300958
158      -0.000141742437
159      -0.000006333381
160      -0.000010382366
161      -0.000007443655
162       0.000049467035
163       0.000087182179
164       0.000060109051
165       0.000035175262
166       0.000076476743
167       0.000047370829
168      -0.000000270966
169      -0.000000965046
170      -0.000000923199
171      -0.000000297953
172      -0.000001405786
173      -0.000001322029
174       0.000013048153
175       0.000019270439
176      -0.000006115213
177       0.000018469646
178      -0.000003667695
179       0.000001034603
180       0.000001349261
181      -0.000002453900
182       0.000005756286
183       0.000003869345
184      -0.000000674235
185      -0.000000095697
186       0.000000514667
187      -0.000001171181
188       0.000005087842
189       0.000005235744
190       0.000013126098