[Molden Format]
[Title]
 Molden file created by orca_2mkl for BaseName=/home/smirnovaanastasia2304_2125/_scratch/HERBD/Ho_Cl_cc

[Atoms] AU
Ho   1  67          0.2888484190         0.4895108783        -0.7553707789 
Cl   2  17         -1.6165000808        -2.4836103660        -3.6609229755 
Cl   3  17         -1.8107544788         4.4315400649         0.3494859512 
Cl   4  17          4.7049947748        -0.2219634522         0.2294921212 
[GTO]
  1 0
s   6 1.0 
  1243224.0362390000      2430.7883883751
   552544.0161060001      -654.1975952983
   245575.1182690000      1411.8065153980
   109144.4970090000       307.3508470299
    48508.6653370000       841.1959093739
    21559.4068170000       618.6822587502
s   1 1.0 
     9581.9585850000       690.2410900848
s   1 1.0 
     4258.6482600000       375.7196600467
s   1 1.0 
     1892.7325600000       204.5158785436
s   1 1.0 
      841.2144710000       111.3243437065
s   1 1.0 
      373.8730980000        60.5972973132
s   1 1.0 
      166.1658210000        32.9849906635
s   1 1.0 
       73.8514760000        17.9547547325
s   1 1.0 
       32.8228780000         9.7733305173
s   1 1.0 
       14.5879460000         5.3199273619
s   1 1.0 
        6.4835320000         2.8958018167
s   1 1.0 
        2.8815700000         1.5762749461
s   1 1.0 
        1.2806980000         0.8580155144
s   1 1.0 
        0.5691990000         0.4670444209
s   1 1.0 
        0.2529770000         0.2542265306
s   1 1.0 
        0.1124340000         0.1383831902
s   1 1.0 
        0.0499710000         0.0753266446
s   1 1.0 
        0.0222090000         0.0410021703
p   5 1.0 
    17047.2980980000      3781.2112013816
     6818.9192390000      1471.3063683664
     2727.5676960000      2326.2798005570
     1091.0270780000      2234.2132780884
      436.4108310000      2107.4020968708
p   1 1.0 
      174.5643330000       904.4498260556
p   1 1.0 
       69.8257330000       287.7129878901
p   1 1.0 
       27.9302930000        91.5238862028
p   1 1.0 
       11.1721170000        29.1145064205
p   1 1.0 
        4.4688470000         9.2615664136
p   1 1.0 
        1.7875390000         2.9461814806
p   1 1.0 
        0.7150160000         0.9372054126
p   1 1.0 
        0.2860060000         0.2981322914
p   1 1.0 
        0.1144020000         0.0948379394
p   1 1.0 
        0.0457610000         0.0301688997
p   1 1.0 
        0.0183040000         0.0095967150
d   4 1.0 
     1232.4390880000      5979.7836619149
      448.1596690000      5676.5811931057
      162.9671520000      5311.3346199687
       59.2607830000      2889.9578560975
d   1 1.0 
       21.5493750000       614.4418263873
d   1 1.0 
        7.8361370000       104.6281674848
d   1 1.0 
        2.8495040000        17.8162503928
d   1 1.0 
        1.0361830000         3.0337786695
d   1 1.0 
        0.3767940000         0.5165971977
d   1 1.0 
        0.1370160000         0.0879670103
d   1 1.0 
        0.0498240000         0.0149791654
d   1 1.0 
        0.0181180000         0.0025507214
f   4 1.0 
       35.5734580000      1886.2962682422
       11.8578190000       519.5575878865
        3.9526060000        65.2635019256
        1.3175350000         3.8546197454
f   1 1.0 
        0.4391780000         0.8952439126
f   1 1.0 
        0.1463930000         0.0755824175

  2 0
s   7 1.0 
    69507.9909450000         4.1142286333
    10426.1568800000         4.2286655222
     2373.2334061000         5.8493829067
      671.5642007100         8.3358677251
      218.4199979000        10.0089622684
       77.5722497100         8.2783277553
       28.8888152800         2.9822029766
s   1 1.0 
      127.1052718500        26.9794296956
s   1 1.0 
       39.3395829600        11.1952141621
s   1 1.0 
        7.6740680000         3.2860890225
s   1 1.0 
        3.8745627600        -1.9682357562
s   1 1.0 
        1.8385832600         1.1253110111
s   1 1.0 
        0.5022905800        -0.4252324193
s   1 1.0 
        0.1796272300         0.1966478587
p   6 1.0 
      666.5042328400        13.1758105786
      157.6424169000        16.0544655669
       50.2625209800        17.4320614645
       18.5360781100        14.3789566857
        7.2940532800         7.6571902731
        2.9433249000         1.9874071930
p   1 1.0 
        1.0404970800         1.4979287975
p   1 1.0 
        0.3845641500        -0.4316692201
p   1 1.0 
        0.1306964300         0.1120133392
d   2 1.0 
        4.6100000000         7.5524217504
        1.0110000000         2.6539585854
d   1 1.0 
        0.3390000000         0.4293579962
f   1 1.0 
        0.7060000000         2.6050175686

  3 0
s   7 1.0 
    69507.9909450000         4.1142286333
    10426.1568800000         4.2286655222
     2373.2334061000         5.8493829067
      671.5642007100         8.3358677251
      218.4199979000        10.0089622684
       77.5722497100         8.2783277553
       28.8888152800         2.9822029766
s   1 1.0 
      127.1052718500        26.9794296956
s   1 1.0 
       39.3395829600        11.1952141621
s   1 1.0 
        7.6740680000         3.2860890225
s   1 1.0 
        3.8745627600        -1.9682357562
s   1 1.0 
        1.8385832600         1.1253110111
s   1 1.0 
        0.5022905800        -0.4252324193
s   1 1.0 
        0.1796272300         0.1966478587
p   6 1.0 
      666.5042328400        13.1758105786
      157.6424169000        16.0544655669
       50.2625209800        17.4320614645
       18.5360781100        14.3789566857
        7.2940532800         7.6571902731
        2.9433249000         1.9874071930
p   1 1.0 
        1.0404970800         1.4979287975
p   1 1.0 
        0.3845641500        -0.4316692201
p   1 1.0 
        0.1306964300         0.1120133392
d   2 1.0 
        4.6100000000         7.5524217504
        1.0110000000         2.6539585854
d   1 1.0 
        0.3390000000         0.4293579962
f   1 1.0 
        0.7060000000         2.6050175686

  4 0
s   7 1.0 
    69507.9909450000         4.1142286333
    10426.1568800000         4.2286655222
     2373.2334061000         5.8493829067
      671.5642007100         8.3358677251
      218.4199979000        10.0089622684
       77.5722497100         8.2783277553
       28.8888152800         2.9822029766
s   1 1.0 
      127.1052718500        26.9794296956
s   1 1.0 
       39.3395829600        11.1952141621
s   1 1.0 
        7.6740680000         3.2860890225
s   1 1.0 
        3.8745627600        -1.9682357562
s   1 1.0 
        1.8385832600         1.1253110111
s   1 1.0 
        0.5022905800        -0.4252324193
s   1 1.0 
        0.1796272300         0.1966478587
p   6 1.0 
      666.5042328400        13.1758105786
      157.6424169000        16.0544655669
       50.2625209800        17.4320614645
       18.5360781100        14.3789566857
        7.2940532800         7.6571902731
        2.9433249000         1.9874071930
p   1 1.0 
        1.0404970800         1.4979287975
p   1 1.0 
        0.3845641500        -0.4316692201
p   1 1.0 
        0.1306964300         0.1120133392
d   2 1.0 
        4.6100000000         7.5524217504
        1.0110000000         2.6539585854
d   1 1.0 
        0.3390000000         0.4293579962
f   1 1.0 
        0.7060000000         2.6050175686

[5D]
[7F]
[9G]
[MO]
 Sym=     1a
 Ene= -2.05120739879741E+03
 Spin= Alpha
 Occup= 1.000000
  1      -0.092130456442
  2      -0.101539488688
  3      -0.176449181161
  4      -0.300456350667
  5      -0.336615682580
  6      -0.168809203922
  7      -0.009477672146
  8      -0.003322431520
  9       0.002419011574
 10      -0.001600361848
 11       0.001076473416
 12      -0.000722727024
 13       0.000480701398
 14      -0.000321717940
 15       0.000213775605
 16      -0.000122135183
 17       0.000038356573
 18      -0.000009279087
 19       0.000000051069
 20       0.000000019131
 21      -0.000000098626
 22      -0.000000041625
 23      -0.000000018191
 24       0.000000083077
 25       0.000000040032
 26       0.000000014997
 27      -0.000000079216
 28      -0.000000050118
 29      -0.000000017883
 30       0.000000099883
 31       0.000000074760
 32       0.000000025340
 33      -0.000000149339
 34      -0.000000121145
 35      -0.000000039463
 36       0.000000242231
 37       0.000000207186
 38       0.000000066095
 39      -0.000000415257
 40      -0.000000354179
 41      -0.000000117793
 42       0.000000716901
 43       0.000000531812
 44       0.000000268245
 45      -0.000001125757
 46      -0.000000560104
 47      -0.000000503660
 48       0.000001293420
 49       0.000000029207
 50      -0.000000048683
 51      -0.000000031539
 52       0.000000032709
 53       0.000000035095
 54      -0.000000073084
 55       0.000000016219
 56      -0.000000014733
 57      -0.000000023002
 58      -0.000000003192
 59       0.000000009625
 60      -0.000000112511
 61       0.000000099691
 62       0.000000156782
 63       0.000000019711
 64      -0.000000068103
 65       0.000000271777
 66      -0.000000241270
 67      -0.000000378650
 68      -0.000000047870
 69       0.000000164014
 70      -0.000000563362
 71       0.000000500828
 72       0.000000785019
 73       0.000000099656
 74      -0.000000339363
 75       0.000001127422
 76      -0.000001004230
 77      -0.000001571349
 78      -0.000000200464
 79       0.000000677467
 80      -0.000002194805
 81       0.000001953642
 82       0.000003050985
 83       0.000000387200
 84      -0.000001318489
 85       0.000003702091
 86      -0.000003233237
 87      -0.000005085133
 88      -0.000000600783
 89       0.000002266450
 90       0.000000136112
 91      -0.000000213740
 92      -0.000000188990
 93      -0.000000088803
 94       0.000000003175
 95      -0.000000264512
 96       0.000000235543
 97       0.000000363008
 98       0.000000047134
 99      -0.000000158223
100       0.000000046624
101       0.000000077709
102       0.000000103163
103      -0.000000069392
104       0.000000179021
105       0.000000261434
106      -0.000000069982
107      -0.000000327314
108      -0.000000530283
109      -0.000000708616
110       0.000000477342
111      -0.000001244154
112      -0.000001809782
113       0.000000482341
114       0.000000983320
115       0.000001391660
116       0.000001952394
117      -0.000001272465
118       0.000003516865
119       0.000005089880
120      -0.000001328693
121      -0.000000068827
122       0.000000076875
123      -0.000000070865
124       0.000000540036
125       0.000001105731
126       0.000000889573
127       0.000000353756
128       0.000006597847
129      -0.000000042894
130      -0.000000062833
131      -0.000000058655
132       0.000000237344
133       0.000000346494
134       0.000000324269
135      -0.000000377197
136      -0.000000630262
137      -0.000000638888
138       0.000001071107
139       0.000002059505
140       0.000002017994
141      -0.000000064500
142       0.000000220118
143       0.000000288264
144      -0.000000017392
145       0.000000082363
146       0.000000161736
147      -0.000000762992
148      -0.000000998303
149       0.000000090387
150      -0.000000384776
151       0.000000627301
152      -0.000000446669
153      -0.000000671727
154       0.000000487500
155      -0.000001087540
156      -0.000000520098
157       0.000000078044
158      -0.000000063540
159       0.000000070935
160      -0.000000065268
161       0.000000495339
162       0.000001007633
163       0.000000798251
164       0.000000403473
165       0.000006693135
166      -0.000000041483
167       0.000000074134
168       0.000000024198
169       0.000000213157
170      -0.000000379966
171      -0.000000125033
172      -0.000000517302
173       0.000001006178
174       0.000000249864
175       0.000001419367
176      -0.000002735283
177      -0.000000694874
178      -0.000000191211
179       0.000000034769
180       0.000000215620
181      -0.000000092439
182      -0.000000218871
183       0.000000578606
184      -0.000000064533
185      -0.000000653675
186       0.000000308693
187       0.000000696284
188      -0.000000558937
189       0.000000363716
190      -0.000000614645
191      -0.000000494849
192      -0.000000534299
193      -0.000001117714
194       0.000000067073
195      -0.000000067566
196       0.000000075457
197      -0.000000069525
198       0.000000529266
199       0.000001081862
200       0.000000866792
201       0.000000359182
202       0.000006574057
203       0.000000090690
204      -0.000000014330
205       0.000000024077
206      -0.000000493255
207       0.000000077129
208      -0.000000131288
209       0.000000973998
210      -0.000000161843
211       0.000000181604
212      -0.000002971446
213       0.000000612467
214      -0.000000472226
215      -0.000000193893
216       0.000000195759
217       0.000000104805
218       0.000000220826
219      -0.000000088160
220       0.000000637260
221      -0.000000665529
222      -0.000000276906
223      -0.000000815675
224       0.000000290256
225      -0.000000522052
226      -0.000000771012
227       0.000000146633
228       0.000000673623
229      -0.000000102405
230      -0.000001016503
231       0.000000563118
 Sym=     1a
 Ene= -3.48413857406511E+02
 Spin= Alpha
 Occup= 1.000000
  1      -0.034861901754
  2      -0.042443527750
  3      -0.074644530219
  4      -0.149987244448
  5      -0.203677748161
  6      -0.073949215072
  7       0.480905592638
  8       0.593391745969
  9       0.089938043437
 10       0.004513698578
 11      -0.003985639624
 12       0.002822512017
 13      -0.002015358499
 14       0.001394064824
 15      -0.000934080477
 16       0.000536751033
 17      -0.000168408226
 18       0.000040792577
 19      -0.000000357617
 20       0.000000054391
 21       0.000000527128
 22      -0.000000533275
 23       0.000000067649
 24       0.000000799465
 25      -0.000000533586
 26       0.000000024279
 27       0.000000844693
 28      -0.000000090026
 29      -0.000000061278
 30       0.000000167346
 31      -0.000000203417
 32      -0.000000038484
 33       0.000000396480
 34       0.000000473069
 35       0.000000142838
 36      -0.000000943778
 37      -0.000000861944
 38      -0.000000265340
 39       0.000001726587
 40       0.000001524295
 41       0.000000499797
 42      -0.000003086125
 43      -0.000002338623
 44      -0.000001186787
 45       0.000004955422
 46       0.000002466559
 47       0.000002250538
 48      -0.000005709576
 49      -0.000000126680
 50       0.000000219406
 51       0.000000132666
 52      -0.000000145067
 53      -0.000000157190
 54       0.000000324824
 55      -0.000000628218
 56       0.000000562945
 57       0.000000898630
 58       0.000000129072
 59      -0.000000387230
 60       0.000000198456
 61      -0.000000193453
 62      -0.000000289708
 63      -0.000000050893
 64       0.000000108544
 65      -0.000000966526
 66       0.000000871537
 67       0.000001354994
 68       0.000000182180
 69      -0.000000573988
 70       0.000002296384
 71      -0.000002051822
 72      -0.000003205861
 73      -0.000000414874
 74       0.000001375816
 75      -0.000004926932
 76       0.000004392068
 77       0.000006869026
 78       0.000000878885
 79      -0.000002958142
 80       0.000009686761
 81      -0.000008624954
 82      -0.000013466116
 83      -0.000001710781
 84       0.000005817141
 85      -0.000016430366
 86       0.000014344518
 87       0.000022563945
 88       0.000002662898
 89      -0.000010062449
 90      -0.000000613371
 91       0.000000960419
 92       0.000000851610
 93       0.000000398085
 94      -0.000000016615
 95       0.000001171301
 96      -0.000001043233
 97      -0.000001607165
 98      -0.000000208791
 99       0.000000700405
100      -0.000000229813
101      -0.000000379677
102      -0.000000504889
103       0.000000340331
104      -0.000000879677
105      -0.000001283075
106       0.000000343319
107       0.000001470485
108       0.000002380615
109       0.000003181212
110      -0.000002143927
111       0.000005588638
112       0.000008127708
113      -0.000002166057
114      -0.000004383833
115      -0.000006200052
116      -0.000008700477
117       0.000005669233
118      -0.000015673629
119      -0.000022684053
120       0.000005920982
121       0.000000136112
122      -0.000000191440
123       0.000000294766
124      -0.000002144062
125      -0.000004516786
126      -0.000003648347
127      -0.000001460816
128      -0.000029347337
129       0.000000194883
130       0.000000286028
131       0.000000267626
132      -0.000001037639
133      -0.000001513833
134      -0.000001416120
135       0.000001742317
136       0.000002902710
137       0.000002938736
138      -0.000004730043
139      -0.000009115978
140      -0.000008932663
141       0.000000283629
142      -0.000000993769
143      -0.000001305323
144       0.000000084268
145      -0.000000381237
146      -0.000000730875
147       0.000003360581
148       0.000004387164
149      -0.000000383560
150       0.000001672967
151      -0.000002769154
152       0.000001969000
153       0.000002960611
154      -0.000002148347
155       0.000004792476
156       0.000002289113
157      -0.000000343308
158       0.000000125388
159      -0.000000176395
160       0.000000271163
161      -0.000001963841
162      -0.000004110954
163      -0.000003268196
164      -0.000001706779
165      -0.000029803461
166       0.000000188456
167      -0.000000337457
168      -0.000000109504
169      -0.000000926482
170       0.000001650016
171       0.000000544340
172       0.000002371727
173      -0.000004608186
174      -0.000001148893
175      -0.000006288198
176       0.000012121016
177       0.000003076340
178       0.000000861773
179      -0.000000149440
180      -0.000000968754
181       0.000000423600
182       0.000000992019
183      -0.000002540416
184       0.000000305576
185       0.000002880386
186      -0.000001333165
187      -0.000003040168
188       0.000002462768
189      -0.000001603651
190       0.000002707009
191       0.000002183311
192       0.000002350675
193       0.000004920081
194      -0.000000293137
195       0.000000133544
196      -0.000000187828
197       0.000000289090
198      -0.000002100392
199      -0.000004417423
200      -0.000003552821
201      -0.000001490239
202      -0.000029248084
203      -0.000000412947
204       0.000000065205
205      -0.000000108919
206       0.000002152469
207      -0.000000336471
208       0.000000573932
209      -0.000004479999
210       0.000000743147
211      -0.000000841496
212       0.000013152247
213      -0.000002716729
214       0.000002081638
215       0.000000875844
216      -0.000000881826
217      -0.000000464590
218      -0.000001006466
219       0.000000400320
220      -0.000002802359
221       0.000002934599
222       0.000001240397
223       0.000003565448
224      -0.000001270976
225       0.000002301580
226       0.000003398558
227      -0.000000647621
228      -0.000002970149
229       0.000000447160
230       0.000004476648
231      -0.000002482089
 Sym=     1a
 Ene= -3.09407974327665E+02
 Spin= Alpha
 Occup= 1.000000
  1       0.000000049954
  2       0.000000063815
  3       0.000000098546
  4       0.000000247572
  5       0.000000224087
  6       0.000000273975
  7      -0.000001192431
  8      -0.000000214566
  9      -0.000001033740
 10       0.000002321340
 11      -0.000004047403
 12       0.000006465799
 13      -0.000010015837
 14       0.000013189034
 15      -0.000008655199
 16      -0.000001735017
 17       0.000001993727
 18      -0.000001006238
 19      -0.172738794186
 20       0.294797698531
 21       0.109007955795
 22      -0.231006127221
 23       0.394237270000
 24       0.145777948611
 25      -0.145391487338
 26       0.248126535828
 27       0.091750264615
 28      -0.007047189662
 29       0.012026693666
 30       0.004447191096
 31      -0.002732859603
 32       0.004664149266
 33       0.001724551401
 34       0.001879865641
 35      -0.003208611654
 36      -0.001186234899
 37      -0.001146023828
 38       0.001956570378
 39       0.000723102552
 40       0.000722978291
 41      -0.001235189148
 42      -0.000456116472
 43      -0.000465326066
 44       0.000795989775
 45       0.000293431377
 46       0.000267797145
 47      -0.000458142401
 48      -0.000168323657
 49      -0.000092705604
 50       0.000158139047
 51       0.000058675182
 52       0.000023912382
 53      -0.000040717199
 54      -0.000015217350
 55       0.000000046492
 56      -0.000000147887
 57       0.000000218392
 58       0.000000099229
 59      -0.000000110837
 60      -0.000000503406
 61      -0.000001495751
 62       0.000000026100
 63      -0.000001692167
 64      -0.000001811943
 65       0.000001634101
 66       0.000004267369
 67       0.000000140125
 68       0.000005227146
 69       0.000005351201
 70      -0.000003775660
 71      -0.000010051032
 72      -0.000000172679
 73      -0.000012120127
 74      -0.000012549016
 75       0.000007717412
 76       0.000020615378
 77       0.000000315621
 78       0.000024791210
 79       0.000025715830
 80      -0.000012889627
 81      -0.000034203001
 82      -0.000000347493
 83      -0.000041124513
 84      -0.000042787128
 85       0.000010889181
 86       0.000025506913
 87      -0.000001507671
 88       0.000031612509
 89       0.000033581400
 90       0.000002131933
 91       0.000005462915
 92      -0.000000131812
 93       0.000006563108
 94       0.000006957080
 95      -0.000002058917
 96      -0.000005155590
 97       0.000000099052
 98      -0.000006322935
 99      -0.000006600796
100       0.000001345268
101      -0.000002391569
102       0.000000767547
103       0.000002487645
104      -0.000000297817
105       0.000000667181
106       0.000000543279
107      -0.000008459634
108       0.000014545672
109      -0.000004678454
110      -0.000015461459
111       0.000001662843
112      -0.000004137184
113      -0.000003585198
114       0.000009339104
115      -0.000014931986
116       0.000005785566
117       0.000015905799
118      -0.000000380609
119       0.000006326020
120       0.000003495140
121       0.000000295722
122      -0.000000415244
123       0.000000659296
124      -0.000004669300
125      -0.000009328792
126      -0.000006058593
127       0.000010378705
128      -0.000016290990
129       0.000001291348
130       0.000001824777
131       0.000001843038
132      -0.000007163055
133      -0.000010980689
134      -0.000010787594
135      -0.000005850482
136      -0.000014307873
137      -0.000012315105
138      -0.000007041649
139      -0.000012651131
140      -0.000011937156
141      -0.000000994522
142      -0.000003287350
143      -0.000004851329
144       0.000001217493
145      -0.000003834734
146       0.000003778781
147       0.000012792758
148       0.000021668698
149      -0.000007102706
150       0.000014976901
151      -0.000005420161
152       0.000006123051
153       0.000006948533
154      -0.000002282824
155       0.000014124995
156       0.000006423563
157      -0.000004285021
158      -0.000000511239
159       0.000000717320
160      -0.000001136625
161       0.000007991817
162       0.000015774018
163       0.000009766878
164      -0.000017859894
165       0.000038325453
166      -0.000002381935
167       0.000004473547
168       0.000001250463
169       0.000013661509
170      -0.000025609621
171      -0.000007201377
172       0.000014335929
173      -0.000026557011
174      -0.000007741925
175       0.000017167169
176      -0.000032508319
177      -0.000009016672
178      -0.000005363684
179      -0.000002982430
180       0.000004520009
181      -0.000006327881
182      -0.000009211236
183       0.000021454891
184       0.000011519071
185      -0.000018407872
186       0.000024813074
187       0.000036550382
188      -0.000011030439
189       0.000006808975
190      -0.000013087774
191      -0.000008035705
192      -0.000012615275
193      -0.000025177985
194       0.000002947546
195       0.000000289213
196      -0.000000406020
197       0.000000644311
198      -0.000004554395
199      -0.000009069656
200      -0.000005814333
201       0.000010263123
202      -0.000016592905
203      -0.000002774442
204       0.000000366288
205      -0.000000663923
206       0.000016169078
207      -0.000002568313
208       0.000003631731
209       0.000018277744
210      -0.000005496714
211       0.000002688839
212       0.000018217299
213      -0.000003609404
214       0.000003600552
215       0.000002695719
216      -0.000002656257
217       0.000000663762
218      -0.000005881354
219       0.000001491217
220      -0.000012168123
221       0.000009962899
222      -0.000002669466
223       0.000023868665
224      -0.000008552138
225       0.000006337571
226       0.000007042456
227      -0.000000176916
228      -0.000009239376
229       0.000001754821
230       0.000013785597
231      -0.000002429120
 Sym=     1a
 Ene= -3.09407950198463E+02
 Spin= Alpha
 Occup= 1.000000
  1      -0.000000000599
  2      -0.000000000413
  3      -0.000000002314
  4       0.000000000903
  5      -0.000000011693
  6       0.000000018616
  7      -0.000000039095
  8       0.000000086373
  9      -0.000000133867
 10       0.000000282558
 11      -0.000000490046
 12       0.000000802200
 13      -0.000001296856
 14       0.000001838754
 15      -0.000001390846
 16       0.000000053165
 17      -0.000000107682
 18       0.000000018471
 19       0.291870546614
 20       0.104300437714
 21       0.180444056330
 22       0.390322900284
 23       0.139482550169
 24       0.241310569886
 25       0.245662726234
 26       0.087788002982
 27       0.151876852267
 28       0.011907729995
 29       0.004255218003
 30       0.007361755894
 31       0.004616839090
 32       0.001649893989
 33       0.002854277035
 34      -0.003174919389
 35      -0.001134672170
 36      -0.001962831490
 37       0.001933943559
 38       0.000691304852
 39       0.001195621204
 40      -0.001217799458
 41      -0.000435578890
 42      -0.000752904698
 43       0.000781787010
 44       0.000279908607
 45       0.000483356658
 46      -0.000448686877
 47      -0.000160457018
 48      -0.000277211828
 49       0.000157728170
 50       0.000056416343
 51       0.000097591652
 52      -0.000041445537
 53      -0.000014834127
 54      -0.000025678137
 55       0.000000253466
 56       0.000000133256
 57       0.000000123997
 58      -0.000000191680
 59       0.000000001041
 60      -0.000001022490
 61      -0.000000170687
 62      -0.000001576225
 63       0.000002008647
 64      -0.000001516225
 65       0.000003328539
 66       0.000000690810
 67       0.000004739994
 68      -0.000006088811
 69       0.000004390042
 70      -0.000007592144
 71      -0.000001514009
 72      -0.000010975933
 73       0.000014081762
 74      -0.000010245022
 75       0.000015520888
 76       0.000003082454
 77       0.000022493310
 78      -0.000028843812
 79       0.000021014664
 80      -0.000025843381
 81      -0.000005115627
 82      -0.000037484577
 83       0.000048062922
 84      -0.000035040931
 85       0.000019785767
 86       0.000003623210
 87       0.000028363887
 88      -0.000036787529
 89       0.000026691502
 90       0.000004297008
 91       0.000000775212
 92       0.000006300263
 93      -0.000008122077
 94       0.000006005934
 95      -0.000003869781
 96      -0.000000719235
 97      -0.000005563377
 98       0.000007204110
 99      -0.000005233158
100       0.000002170176
101       0.000000695990
102      -0.000001749746
103      -0.000000202528
104      -0.000001961657
105       0.000001027936
106      -0.000001057751
107      -0.000013654002
108      -0.000004346213
109       0.000010725505
110       0.000001235986
111       0.000012041141
112      -0.000006132883
113       0.000006796154
114       0.000014400104
115       0.000005503668
116      -0.000011835756
117       0.000000185940
118      -0.000011966937
119       0.000006202004
120      -0.000009364060
121       0.000000468535
122      -0.000000657856
123       0.000001044131
124      -0.000007385687
125      -0.000014723136
126      -0.000009472013
127       0.000016291122
128      -0.000031036106
129       0.000001808401
130       0.000003030811
131       0.000002911974
132      -0.000010829209
133      -0.000017546148
134      -0.000016984555
135      -0.000013215130
136      -0.000018520811
137      -0.000018543772
138      -0.000014679071
139      -0.000018903902
140      -0.000019625793
141      -0.000001423508
142      -0.000004870787
143      -0.000008326676
144       0.000003081600
145      -0.000005418161
146       0.000005635532
147       0.000021481498
148       0.000034423664
149      -0.000011500545
150       0.000023105742
151      -0.000009023250
152       0.000007135020
153       0.000012958761
154      -0.000011581652
155       0.000019204665
156       0.000011346088
157       0.000000581768
158       0.000000000425
159      -0.000000000589
160       0.000000000904
161      -0.000000005533
162      -0.000000007797
163       0.000000005053
164       0.000000075500
165       0.000000111195
166      -0.000000000348
167      -0.000000011389
168      -0.000000005817
169      -0.000000475423
170      -0.000000104140
171      -0.000000261055
172      -0.000003861477
173      -0.000001281351
174      -0.000002337277
175      -0.000000402038
176      -0.000000130148
177      -0.000000236446
178      -0.000000233649
179      -0.000000121319
180      -0.000000111913
181       0.000000182850
182       0.000000027694
183       0.000000007269
184       0.000000450997
185      -0.000001219214
186       0.000001384888
187      -0.000001850797
188       0.000000887195
189       0.000001597442
190      -0.000001217859
191       0.000002735906
192       0.000000682557
193      -0.000000971623
194      -0.000004293120
195      -0.000000458462
196       0.000000643586
197      -0.000001020966
198       0.000007208644
199       0.000014326186
200       0.000009105827
201      -0.000016029813
202       0.000031738978
203       0.000004372678
204      -0.000000792195
205       0.000000912809