[Molden Format]
[Title]
 Molden file created by orca_2mkl for BaseName=/home/nikolayandreadi_2125/_scratch/F_cc/Nd_F_cc

[Atoms] AU
Nd   1  60          0.4638994200         0.7263483649        -1.2966053512 
F    2   9         -1.5235576804        -2.2778777716        -2.9225389449 
F    3   9         -1.4682680732         3.6501798825         0.5290420593 
F    4   9          3.8513582370        -0.2270071313         0.4483507534 
[GTO]
  1 0
s   6 1.0 
   994735.7959840000      1863.9135210443
   442104.7982150000      -485.8456998776
   196491.0214290000      1100.1532089676
    87329.3428570000       270.9095245490
    38813.0412700000       691.0933671839
    17250.2405640000       543.4710696949
s   1 1.0 
     7666.7735840000       583.9418085366
s   1 1.0 
     3407.4549260000       317.8576600717
s   1 1.0 
     1514.4244120000       173.0197951516
s   1 1.0 
      673.0775160000        94.1800474027
s   1 1.0 
      299.1455630000        51.2651245068
s   1 1.0 
      132.9535830000        27.9051991663
s   1 1.0 
       59.0904820000        15.1896666015
s   1 1.0 
       26.2624360000         8.2682071254
s   1 1.0 
       11.6721940000         4.5006419631
s   1 1.0 
        5.1876420000         2.4498392620
s   1 1.0 
        2.3056190000         1.3335237321
s   1 1.0 
        1.0247190000         0.7258780834
s   1 1.0 
        0.4554310000         0.3951181991
s   1 1.0 
        0.2024140000         0.2150752828
s   1 1.0 
        0.0899620000         0.1170723723
s   1 1.0 
        0.0399830000         0.0637259950
s   1 1.0 
        0.0177700000         0.0346877127
p   5 1.0 
    13410.3010510000      2401.5364004241
     5364.1204200000      1024.5588215214
     2145.6481680000      1626.1321344023
      858.2592670000      1638.1793695256
      343.3037070000      1573.4149290153
p   1 1.0 
      137.3214830000       670.0592301905
p   1 1.0 
       54.9285930000       213.1513959541
p   1 1.0 
       21.9714370000        67.8052256278
p   1 1.0 
        8.7885750000        21.5694050932
p   1 1.0 
        3.5154300000         6.8614066030
p   1 1.0 
        1.4061720000         2.1826703318
p   1 1.0 
        0.5624690000         0.6943258388
p   1 1.0 
        0.2249880000         0.2208712972
p   1 1.0 
        0.0899950000         0.0702607958
p   1 1.0 
        0.0359980000         0.0223505417
p   1 1.0 
        0.0143990000         0.0071097692
d   4 1.0 
      918.9318400000      3603.5190663488
      334.1570330000      3495.8915352391
      121.5116480000      3244.5867394900
       44.1860540000      1718.4301569526
d   1 1.0 
       16.0676560000       367.6097339451
d   1 1.0 
        5.8427840000        62.5971828323
d   1 1.0 
        2.1246490000        10.6591524025
d   1 1.0 
        0.7726000000         1.8150592864
d   1 1.0 
        0.2809450000         0.3090703695
d   1 1.0 
        0.1021620000         0.0526291686
d   1 1.0 
        0.0371500000         0.0089618571
d   1 1.0 
        0.0135090000         0.0015260216
f   4 1.0 
       23.0540210000       712.1519496894
        7.6846740000       187.9678783496
        2.5615580000        24.4339048979
        0.8538530000         1.5279715144
f   1 1.0 
        0.2846180000         0.3373575197
f   1 1.0 
        0.0948730000         0.0284820343

  2 0
s   6 1.0 
    35479.1004410000         1.9229128581
     5318.4728983000         2.2734773358
     1210.4810975000         3.4747482552
      342.8551814000         5.2879612972
      112.0194318100         7.1666332516
       40.7147402500         7.7556346254
s   1 1.0 
       16.0396781100         5.7122450312
s   1 1.0 
        6.5038186700         2.9025947842
s   1 1.0 
        1.5440477500         0.9872011154
s   1 1.0 
        0.6122345300        -0.4932856223
s   1 1.0 
        0.2402798000         0.2445952611
p   4 1.0 
       80.2339004800         4.2755032106
       18.5940107400         4.7314752302
        5.6867902700         4.0864798013
        1.9511006300         2.2989954518
p   1 1.0 
        0.6697021100         0.8635593126
p   1 1.0 
        0.2165130000         0.2105208234
d   1 1.0 
        3.1070000000        20.7284714039
d   1 1.0 
        0.8550000000         2.1672588463
f   1 1.0 
        1.9170000000        24.6547062912

  3 0
s   6 1.0 
    35479.1004410000         1.9229128581
     5318.4728983000         2.2734773358
     1210.4810975000         3.4747482552
      342.8551814000         5.2879612972
      112.0194318100         7.1666332516
       40.7147402500         7.7556346254
s   1 1.0 
       16.0396781100         5.7122450312
s   1 1.0 
        6.5038186700         2.9025947842
s   1 1.0 
        1.5440477500         0.9872011154
s   1 1.0 
        0.6122345300        -0.4932856223
s   1 1.0 
        0.2402798000         0.2445952611
p   4 1.0 
       80.2339004800         4.2755032106
       18.5940107400         4.7314752302
        5.6867902700         4.0864798013
        1.9511006300         2.2989954518
p   1 1.0 
        0.6697021100         0.8635593126
p   1 1.0 
        0.2165130000         0.2105208234
d   1 1.0 
        3.1070000000        20.7284714039
d   1 1.0 
        0.8550000000         2.1672588463
f   1 1.0 
        1.9170000000        24.6547062912

  4 0
s   6 1.0 
    35479.1004410000         1.9229128581
     5318.4728983000         2.2734773358
     1210.4810975000         3.4747482552
      342.8551814000         5.2879612972
      112.0194318100         7.1666332516
       40.7147402500         7.7556346254
s   1 1.0 
       16.0396781100         5.7122450312
s   1 1.0 
        6.5038186700         2.9025947842
s   1 1.0 
        1.5440477500         0.9872011154
s   1 1.0 
        0.6122345300        -0.4932856223
s   1 1.0 
        0.2402798000         0.2445952611
p   4 1.0 
       80.2339004800         4.2755032106
       18.5940107400         4.7314752302
        5.6867902700         4.0864798013
        1.9511006300         2.2989954518
p   1 1.0 
        0.6697021100         0.8635593126
p   1 1.0 
        0.2165130000         0.2105208234
d   1 1.0 
        3.1070000000        20.7284714039
d   1 1.0 
        0.8550000000         2.1672588463
f   1 1.0 
        1.9170000000        24.6547062912

[5D]
[7F]
[9G]
[MO]
 Sym=     1a
 Ene= -1.60735731035363E+03
 Spin= Alpha
 Occup= 1.000000
  1       0.080655272958
  2       0.093496075178
  3       0.170836422678
  4       0.298998600157
  5       0.346279766641
  6       0.176840706643
  7       0.011066377952
  8       0.003124205078
  9      -0.002271165103
 10       0.001493674018
 11      -0.001008621376
 12       0.000677976905
 13      -0.000449950528
 14       0.000298878760
 15      -0.000190942240
 16       0.000103995930
 17      -0.000042345078
 18       0.000011503226
 19       0.000000087235
 20       0.000000203629
 21      -0.000000390444
 22      -0.000000083369
 23      -0.000000179941
 24       0.000000336420
 25       0.000000066714
 26       0.000000137391
 27      -0.000000256381
 28      -0.000000078329
 29      -0.000000147590
 30       0.000000270847
 31       0.000000111578
 32       0.000000198040
 33      -0.000000359212
 34      -0.000000176889
 35      -0.000000305815
 36       0.000000551509
 37       0.000000309379
 38       0.000000538709
 39      -0.000000969170
 40      -0.000000524535
 41      -0.000000947146
 42       0.000001700036
 43       0.000000666789
 44       0.000001231343
 45      -0.000002204193
 46      -0.000000458189
 47      -0.000000694995
 48       0.000001284192
 49       0.000000007691
 50      -0.000000019428
 51       0.000000014123
 52       0.000000003034
 53       0.000000014452
 54      -0.000000020645
 55      -0.000000031520
 56       0.000000037989
 57       0.000000064639
 58      -0.000000014515
 59      -0.000000016199
 60       0.000000111084
 61      -0.000000113485
 62      -0.000000177672
 63       0.000000003693
 64       0.000000055930
 65      -0.000000264593
 66       0.000000262377
 67       0.000000403846
 68       0.000000010279
 69      -0.000000132411
 70       0.000000539202
 71      -0.000000529817
 72      -0.000000808727
 73      -0.000000034200
 74       0.000000270133
 75      -0.000001105768
 76       0.000001088785
 77       0.000001650548
 78       0.000000079037
 79      -0.000000555372
 80       0.000001821190
 81      -0.000001803068
 82      -0.000002707043
 83      -0.000000142996
 84       0.000000917841
 85      -0.000001316979
 86       0.000001246312
 87       0.000001907671
 88       0.000000132559
 89      -0.000000675655
 90      -0.000000112632
 91       0.000000115237
 92       0.000000155608
 93       0.000000019228
 94      -0.000000055662
 95       0.000000048840
 96      -0.000000049091
 97      -0.000000068289
 98      -0.000000007553
 99       0.000000024550
100      -0.000000100906
101       0.000000004051
102       0.000000022205
103       0.000000130062
104      -0.000000370769
105      -0.000000348463
106       0.000000097082
107       0.000000685868
108      -0.000000027086
109      -0.000000150182
110      -0.000000887200
111       0.000002500163
112       0.000002351779
113      -0.000000661477
114      -0.000000666825
115      -0.000000014910
116       0.000000070876
117       0.000000852631
118      -0.000002436532
119      -0.000002328084
120       0.000000652912
121       0.000000089826
122      -0.000000418561
123       0.000000802549
124      -0.000002405502
125      -0.000004105544
126      -0.000003727858
127      -0.000000256661
128      -0.000000415321
129      -0.000000200769
130       0.000001303326
131       0.000002058241
132       0.000001037995
133       0.000000295796
134       0.000000291176
135       0.000000328685
136       0.000000072529
137      -0.000000082844
138      -0.000000134977
139       0.000000080075
140      -0.000000161808
141      -0.000000401265
142       0.000000526000
143       0.000000822145
144      -0.000000453709
145       0.000000993738
146       0.000000048656
147       0.000000002502
148       0.000000002237
149       0.000000019086
150      -0.000000053839
151      -0.000000032252
152       0.000000012039
153       0.000000088708
154      -0.000000413560
155       0.000000793704
156      -0.000002388240
157      -0.000004096145
158      -0.000003748564
159      -0.000000240702
160       0.000000379206
161       0.000000265272
162       0.000001240696
163      -0.000001928053
164      -0.000001294235
165       0.000000307375
166      -0.000000401049
167      -0.000000054521
168       0.000000033097
169       0.000000094913
170      -0.000000158149
171       0.000000065264
172       0.000000141820
173      -0.000000241112
174      -0.000000583990
175       0.000000924057
176      -0.000000402879
177      -0.000000908838
178      -0.000000044001
179       0.000000013066
180      -0.000000005936
181      -0.000000028746
182      -0.000000048321
183      -0.000000042932
184      -0.000000017576
185       0.000000081966
186      -0.000000383631
187       0.000000741597
188      -0.000002306269
189      -0.000004072336
190      -0.000003667515
191       0.000000404727
192      -0.000000121670
193       0.000000235587
194      -0.000002208149
195       0.000000645063
196      -0.000001223735
197      -0.000000541166
198       0.000000096912
199      -0.000000096726
200       0.000000031940
201      -0.000000142052
202       0.000000037564
203      -0.000000108477
204       0.000000073554
205      -0.000000261297
206       0.000000950625
207      -0.000000261075
208       0.000000801655
209      -0.000000507814
210      -0.000000061765
211      -0.000000011290
212       0.000000011136
213       0.000000078939
214      -0.000000033287
215      -0.000000046218
216       0.000000055495
 Sym=     1a
 Ene= -2.64560027840357E+02
 Spin= Alpha
 Occup= 1.000000
  1       0.029588564951
  2       0.037647207707
  3       0.069945134976
  4       0.144395676819
  5       0.206874840837
  6       0.096538617806
  7      -0.451505324230
  8      -0.615365175494
  9      -0.109979292294
 10      -0.003670377394
 11       0.003103414181
 12      -0.002221695010
 13       0.001640249531
 14      -0.001139872193
 15       0.000734700014
 16      -0.000401298170
 17       0.000163918969
 18      -0.000044639294
 19      -0.000000055746
 20      -0.000000436806
 21       0.000001192366
 22      -0.000000090155
 23      -0.000000731024
 24       0.000001936750
 25      -0.000000337194
 26      -0.000001079152
 27       0.000002450550
 28      -0.000000466799
 29      -0.000000955788
 30       0.000001781354
 31      -0.000000152213
 32      -0.000000225242
 33       0.000000409614
 34       0.000000568186
 35       0.000000962828
 36      -0.000001733420
 37      -0.000001125261
 38      -0.000001943781
 39       0.000003488492
 40       0.000001999942
 41       0.000003630468
 42      -0.000006511053
 43      -0.000002617654
 44      -0.000004908145
 45       0.000008792235
 46       0.000001719177
 47       0.000002625863
 48      -0.000004863467
 49      -0.000000004886
 50       0.000000114651
 51      -0.000000123104
 52      -0.000000018544
 53      -0.000000066711
 54       0.000000098563
 55       0.000003458240
 56      -0.000004518735
 57      -0.000007604929
 58       0.000002055265
 59       0.000001899815
 60      -0.000000633091
 61       0.000000666633
 62       0.000001005156
 63       0.000000003425
 64      -0.000000335106
 65       0.000000730785
 66      -0.000000697111
 67      -0.000001005639
 68      -0.000000131109
 69       0.000000383022
 70      -0.000002056391
 71       0.000002026639
 72       0.000003071514
 73       0.000000146355
 74      -0.000001039411
 75       0.000004412613
 76      -0.000004351492
 77      -0.000006576456
 78      -0.000000327245
 79       0.000002222828
 80      -0.000007339977
 81       0.000007278827
 82       0.000010897583
 83       0.000000592079
 84      -0.000003708232
 85       0.000005047052
 86      -0.000004780334
 87      -0.000007297209
 88      -0.000000521843
 89       0.000002599031
 90       0.000000478600
 91      -0.000000486784
 92      -0.000000666570
 93      -0.000000076267
 94       0.000000235311
 95      -0.000000200900
 96       0.000000201257
 97       0.000000282076
 98       0.000000029811
 99      -0.000000100517
100       0.000000491468
101      -0.000000133158
102      -0.000000296950
103      -0.000000629837
104       0.000001776554
105       0.000001536534
106      -0.000000423188
107      -0.000002845150
108       0.000000147938
109       0.000000681310
110       0.000003678001
111      -0.000010347051
112      -0.000009691170
113       0.000002727355
114       0.000002629591
115       0.000000040496
116      -0.000000308307
117      -0.000003360755
118       0.000009588916
119       0.000009140682
120      -0.000002565974
121      -0.000000291647
122       0.000001488109
123      -0.000003041598
124       0.000009379511
125       0.000015712637
126       0.000013872039
127       0.000001061105
128       0.000001712668
129       0.000000832110
130      -0.000005118476
131      -0.000008089341
132      -0.000004089691
133      -0.000001334689
134      -0.000001408732
135      -0.000001419793
136      -0.000000304089
137       0.000000358877
138       0.000000580977
139      -0.000000343056
140       0.000000698935
141       0.000001618971
142      -0.000002142567
143      -0.000003347631
144       0.000001851090
145      -0.000004049500
146      -0.000000147817
147      -0.000000006695
148      -0.000000003795
149      -0.000000048863
150       0.000000151289
151       0.000000066539
152      -0.000000037174
153      -0.000000288215
154       0.000001471005
155      -0.000003009392
156       0.000009314053
157       0.000015680580
158       0.000013965397
159       0.000000996428
160      -0.000001567713
161      -0.000001091656
162      -0.000004870723
163       0.000007585592
164       0.000005082627
165      -0.000001373782
166       0.000001818144
167       0.000000381108
168      -0.000000145462
169      -0.000000410466
170       0.000000675346
171      -0.000000285301
172      -0.000000616206
173       0.000000980690
174       0.000002380693
175      -0.000003755612
176       0.000001652850
177       0.000003704355
178       0.000000129180
179      -0.000000054975
180       0.000000025262
181       0.000000084779
182       0.000000125746
183       0.000000113121
184       0.000000060962
185      -0.000000268486
186       0.000001372117
187      -0.000002827926
188       0.000009025805
189       0.000015625578
190       0.000013669024
191      -0.000001685618
192       0.000000505155
193      -0.000000975777
194       0.000008698848
195      -0.000002535465
196       0.000004813422
197       0.000002409816
198      -0.000000468594
199       0.000000540590
200      -0.000000144852
201       0.000000622964
202      -0.000000168173
203       0.000000487105
204      -0.000000324063
205       0.000001070007
206      -0.000003885874
207       0.000001074768
208      -0.000003291425
209       0.000002075610
210       0.000000195021
211       0.000000042962
212      -0.000000045436
213      -0.000000246960
214       0.000000092105
215       0.000000138559
216      -0.000000173207
 Sym=     1a
 Ene= -2.36728812782558E+02
 Spin= Alpha
 Occup= 1.000000
  1      -0.000000032038
  2      -0.000000041711
  3      -0.000000073951
  4      -0.000000166988
  5      -0.000000208044
  6      -0.000000151210
  7       0.000000686158
  8       0.000000592014
  9       0.000000036282
 10      -0.000000467767
 11       0.000000892067
 12      -0.000001378740
 13       0.000002253703
 14      -0.000003258275
 15       0.000002161538
 16       0.000001630025
 17      -0.000001357903
 18       0.000000322805
 19       0.033643424826
 20       0.293092535125
 21       0.187505360214
 22       0.046136549320
 23       0.401929437247
 24       0.257133567626
 25       0.029687268751
 26       0.258627721172
 27       0.165456551390
 28       0.001701142810
 29       0.014820450607
 30       0.009481418148
 31       0.000523950163
 32       0.004563772754
 33       0.002919533267
 34      -0.000363851430
 35      -0.003168469826
 36      -0.002026768116
 37       0.000220703045
 38       0.001920244396
 39       0.001227995400
 40      -0.000140821293
 41      -0.001221814502
 42      -0.000780801487
 43       0.000090501893
 44       0.000781325906
 45       0.000498910459
 46      -0.000036045513
 47      -0.000319567981
 48      -0.000204740359
 49       0.000014930410
 50       0.000133202016
 51       0.000085445521
 52      -0.000004925654
 53      -0.000043787620
 54      -0.000028073685
 55      -0.000000362973
 56      -0.000000347957
 57      -0.000000299558
 58      -0.000000075780
 59      -0.000000663257
 60      -0.000000076947
 61      -0.000000881697
 62      -0.000000103977
 63       0.000000071559
 64      -0.000001753108
 65      -0.000000819941
 66       0.000003790208
 67      -0.000000127280
 68      -0.000000888928
 69       0.000007734261
 70       0.000001332099
 71      -0.000009837928
 72      -0.000000197135
 73       0.000001956039
 74      -0.000019938071
 75      -0.000002736605
 76       0.000022333706
 77       0.000000662034
 78      -0.000004328885
 79       0.000045234304
 80       0.000004668461
 81      -0.000039586744
 82      -0.000001309482
 83       0.000007672746
 84      -0.000080334113
 85      -0.000000099522
 86      -0.000013494754
 87      -0.000001822852
 88       0.000001926005
 89      -0.000027139612
 90      -0.000001209988
 91       0.000011614752
 92       0.000000523569
 93      -0.000002214517
 94       0.000023614400
 95       0.000000380015
 96      -0.000003484920
 97      -0.000000143625
 98       0.000000673880
 99      -0.000007093383
100       0.000004141476
101      -0.000001736845
102      -0.000000330077
103       0.000002783406
104      -0.000001673911
105       0.000001588040
106      -0.000000295442
107      -0.000039233120
108      -0.000001526335
109      -0.000001476131
110      -0.000019608720
111       0.000000391113
112       0.000001142487
113      -0.000005583794
114       0.000010236880
115      -0.000002006947
116      -0.000000710210
117       0.000006999836
118      -0.000002184414
119       0.000001758405
120      -0.000000819748
121       0.000000375202
122      -0.000002102511
123       0.000004777385
124      -0.000018024115
125      -0.000008099546
126       0.000067898401
127      -0.000005181330
128      -0.000006075032
129      -0.000002969444
130       0.000023818801
131       0.000030231947
132       0.000015297596
133       0.000027528212
134       0.000052298425
135       0.000030548740
136       0.000001623646
137      -0.000001961268
138      -0.000002448823
139       0.000000751763
140      -0.000003981905
141      -0.000008607491
142       0.000011283206
143       0.000015187612
144      -0.000006180382
145       0.000021924970
146       0.000000408674
147      -0.000000341771
148      -0.000000274602
149       0.000000778321
150      -0.000000603241
151      -0.000000819590
152      -0.000000692087
153      -0.000000338742
154       0.000001899773
155      -0.000004322447
156       0.000016389424
157       0.000007820868
158      -0.000060239193
159       0.000004895510
160      -0.000005001620
161      -0.000003243693
162      -0.000022127875
163       0.000025547295
164       0.000016366275
165      -0.000021709634
166       0.000047934774
167       0.000028989024
168      -0.000001165354
169      -0.000002265377
170       0.000002350656
171      -0.000000283219
172      -0.000003433565
173       0.000005991539
174       0.000012166522
175      -0.000014787042
176       0.000004074316
177       0.000018977003
178       0.000000284532
179       0.000000316136
180      -0.000000336443
181       0.000001054076
182       0.000000417367
183       0.000000811842
184      -0.000000918183
185      -0.000000022658
186       0.000000141066
187      -0.000000374195
188       0.000001882693
189       0.000000789565
190      -0.000008605080
191      -0.000000774398
192       0.000001592862
193       0.000000325671
194       0.000004301107
195      -0.000005823609
196      -0.000000207694
197       0.000007321277
198       0.000006661391
199       0.000008340118
200      -0.000000810967
201      -0.000000331481
202      -0.000000595493
203      -0.000000126882
204      -0.000001409514
205       0.000003211521
206       0.000000131796
207       0.000002439553
208      -0.000000599676
209       0.000005778982
210      -0.000000001073
211      -0.000000975465
212       0.000000246185
213      -0.000000925295
214      -0.000000665453
215       0.000000893624
216       0.000000865813
 Sym=     1a
 Ene= -2.36727994790742E+02
 Spin= Alpha
 Occup= 1.000000
  1      -0.000000065826
  2      -0.000000087434
  3      -0.000000147297
  4      -0.000000362521
  5      -0.000000387654
  6      -0.000000419160
  7       0.000001714303
  8       0.000001102463
  9       0.000000063202
 10      -0.000002049563
 11       0.000003889924
 12      -0.000006119076
 13       0.000010295048
 14      -0.000015494581
 15       0.000010119317
 16       0.000009350635
 17      -0.000006448200
 18       0.000001511997
 19       0.317016365006
 20      -0.103458982526
 21       0.104837262669
 22       0.434737650077
 23      -0.141877667192
 24       0.143767791965
 25       0.279735692148
 26      -0.091292361105
 27       0.092508522751
 28       0.016028387281
 29      -0.005231394891
 30       0.005301290008
 31       0.004936651208
 32      -0.001610287299
 33       0.001631370133
 34      -0.003426132285
 35       0.001116698836
 36      -0.001130903229
 37       0.002075330611
 38      -0.000674611858
 39       0.000682345940
 40      -0.001319039684
 41       0.000425462342
 42      -0.000428904679
 43       0.000842421610
 44      -0.000268749464
 45       0.000269886195
 46      -0.000339200117
 47       0.000113544055
 48      -0.000115791083
 49       0.000143602024
 50      -0.000048819646
 51       0.000050083759
 52      -0.000047282682
 53       0.000015966531
 54      -0.000016341967
 55      -0.000000241147
 56      -0.000000039792
 57      -0.000000042189
 58       0.000000532997
 59       0.000000003744
 60      -0.000000212318
 61       0.000001094307
 62      -0.000000963709
 63       0.000001557077
 64      -0.000000338100
 65      -0.000000092929
 66      -0.000005542957
 67       0.000005032023
 68      -0.000005496379
 69       0.000002011080
 70      -0.000000160174
 71       0.000013560497
 72      -0.000012545058
 73       0.000014588947
 74      -0.000004852149
 75       0.000000456567
 76      -0.000030647019
 77       0.000028467484
 78      -0.000033334101
 79       0.000010973485
 80      -0.000001101778
 81       0.000054895670
 82      -0.000050666256
 83       0.000059919491
 84      -0.000019759783
 85      -0.000000906742
 86       0.000019019251
 87      -0.000019028266
 88       0.000023890147
 89      -0.000006744066
 90       0.000000353022
 91      -0.000016193390
 92       0.000015088156
 93      -0.000017933367
 94       0.000005849780
 95      -0.000000102864
 96       0.000004873899
 97      -0.000004518667
 98       0.000005360269
 99      -0.000001764957
100       0.000001874174
101       0.000002053495
102      -0.000002077877
103      -0.000003417434
104      -0.000002137231
105       0.000000389951
106      -0.000001507436
107      -0.000018398416
108      -0.000001757681
109      -0.000000277623
110       0.000032349692
111       0.000010889332
112       0.000005256460
113       0.000020992960
114       0.000004046396
115       0.000002519814
116      -0.000003352567
117      -0.000007709129
118      -0.000003697917
119       0.000000158725
120      -0.000003064306
121       0.000000143333
122      -0.000000801762
123       0.000001817019
124      -0.000006694957
125      -0.000001171337
126       0.000032207137
127      -0.000000374161
128      -0.000003767054
129      -0.000001090406
130       0.000003789987
131       0.000016191988
132       0.000005690116
133       0.000022563076
134       0.000014295360
135       0.000013579670
136       0.000000776600
137      -0.000000155723
138      -0.000001334270
139       0.000002310303
140      -0.000000969698
141      -0.000003863120
142       0.000002179600
143       0.000007317175
144      -0.000009252663
145       0.000006510858
146       0.000000163209
147       0.000000033874
148      -0.000000435957
149      -0.000000826681
150      -0.000000722959
151       0.000000197575
152       0.000001734082
153       0.000000232188
154      -0.000001289954
155       0.000002890196
156      -0.000010432848
157      -0.000002709721
158       0.000046760036
159      -0.000001531495
160       0.000003975646
161       0.000003416503
162       0.000008749727
163      -0.000018639491
164      -0.000014664377
165       0.000026550163
166      -0.000030000807
167      -0.000012852492
168      -0.000000322667
169       0.000001279531
170      -0.000002800309
171       0.000001621187
172       0.000001388230
173      -0.000000248540
174      -0.000007173083
175       0.000013940959
176      -0.000007517388
177      -0.000009161987
178      -0.000000349664
179       0.000000538061
180      -0.000001088538
181       0.000000764397
182      -0.000000372770
183      -0.000000448262
184      -0.000000956630
185      -0.000000332097
186       0.000001904106
187      -0.000004497818
188       0.000018477455
189       0.000006376957
190      -0.000086445608
191      -0.000007695573
192       0.000002241138
193      -0.000004289684
194       0.000039516073
195      -0.000011448559
196       0.000021541339
197       0.000068413738
198      -0.000018120681
199       0.000032235673
200      -0.000000928725
201       0.000003659259
202      -0.000001058085
203       0.000003165830
204      -0.000001835558
205       0.000006150437
206      -0.000022428257
207       0.000006350327
208      -0.000019553329
209       0.000011645423
210       0.000000756590
211       0.000000270368
212       0.000000080640
213      -0.000000918474
214       0.000000689987
215       0.000000796272
216      -0.000000827572
 Sym=     1a
 Ene= -2.36726391656861E+02
 Spin= Alpha
 Occup= 1.000000
  1      -0.000000232587
  2      -0.000000317753
  3      -0.000000492721
  4      -0.000001379767
  5      -0.000001150314
  6      -0.000002060542
  7       0.000007494179
  8       0.000002737813
  9       0.000001888903
 10      -0.000014459440
 11       0.000026631213
 12      -0.000042278993
 13       0.000069173059
 14      -0.000097379034
 15       0.000061280277
 16       0.000042469576
 17      -0.000032006701
 18       0.000007227765
 19      -0.143397576296
 20      -0.159958233368
 21       0.275762465643
 22      -0.196647864811
 23      -0.219358434432
 24       0.378166372217
 25      -0.126531682937
 26      -0.141144515301
 27       0.243328263893
 28      -0.007252010801
 29      -0.008090496285
 30       0.013947723670
 31      -0.002227802687
 32      -0.002483493110
 33       0.004281454674
 34       0.001539232433
 35       0.001714151854
 36      -0.002955108515
 37      -0.000918959782
 38      -0.001019777503
 39       0.001758003613
 40       0.000559247813
 41       0.000614050922
 42      -0.001058508158
 43      -0.000334198595
 44      -0.000361012640
 45       0.000622288300
 46       0.000172452115
 47       0.000197198885
 48      -0.000340067429
 49      -0.000079135105
 50      -0.000091863374
 51       0.000158413453
 52       0.000025297056
 53       0.000029200380
 54      -0.000050351576
 55      -0.000000930807
 56       0.000000650610
 57       0.000001109409
 58       0.000000138955
 59      -0.000000321787
 60      -0.000001344183
 61       0.000001062866
 62       0.000001937039
 63       0.000000066872
 64      -0.000000563928
 65       0.000000384674
 66      -0.000000157164
 67      -0.000001191852
 68       0.000000560484
 69       0.000000038356
 70      -0.000002329435
 71       0.000001389946