[Molden Format]
[Title]
 Molden file created by orca_2mkl for BaseName=/home/nikolayandreadi_2125/_scratch/F2_cc/Tb_F2_cc

[Atoms] AU
Tb   1  65         -0.2629383840        -0.3392285178        -1.5040916115 
F    2   9         -1.9429219246         2.9192054680        -0.6271868758 
F    3   9          3.3807994221        -0.9183634374        -0.7467082743 
[GTO]
  1 0
s   6 1.0 
  1169335.0320500000      2257.9371502123
   519704.4586890000      -602.2483363036
   230979.7594170000      1317.3870848776
   102657.6708520000       297.4045038601
    45625.6314900000       796.7055554523
    20278.0584400000       597.4180684830
s   1 1.0 
     9012.4704180000       659.2391358096
s   1 1.0 
     4005.5424080000       358.8443336015
s   1 1.0 
     1780.2410700000       195.3301142957
s   1 1.0 
      791.2182530000       106.3242469495
s   1 1.0 
      351.6525570000        57.8755894164
s   1 1.0 
      156.2900250000        31.5034805347
s   1 1.0 
       69.4622330000        17.1483227009
s   1 1.0 
       30.8721040000         9.3343646701
s   1 1.0 
       13.7209350000         5.0809845280
s   1 1.0 
        6.0981930000         2.7657375498
s   1 1.0 
        2.7103080000         1.5054768355
s   1 1.0 
        1.2045810000         0.8194776225
s   1 1.0 
        0.5353700000         0.4460675345
s   1 1.0 
        0.2379420000         0.2428082411
s   1 1.0 
        0.1057520000         0.1321680658
s   1 1.0 
        0.0470010000         0.0719433101
s   1 1.0 
        0.0208890000         0.0391605091
p   5 1.0 
    15962.9363470000      3334.0319210996
     6385.1745390000      1330.9849615702
     2554.0698150000      2106.5012424578
     1021.6279260000      2051.4716840897
      408.6511700000      1945.7955945689
p   1 1.0 
      163.4604680000       833.1170267169
p   1 1.0 
       65.3841870000       265.0214329808
p   1 1.0 
       26.1536750000        84.3055160641
p   1 1.0 
       10.4614700000        26.8182836797
p   1 1.0 
        4.1845880000         8.5311184025
p   1 1.0 
        1.6738350000         2.7138190943
p   1 1.0 
        0.6695340000         0.8632883556
p   1 1.0 
        0.2678140000         0.2746196966
p   1 1.0 
        0.1071250000         0.0873581909
p   1 1.0 
        0.0428500000         0.0277893649
p   1 1.0 
        0.0171400000         0.0088400274
d   4 1.0 
     1138.5148960000      5200.0410121432
      414.0054170000      4972.1062622461
      150.5474240000      4645.8865053976
       54.7445180000      2512.1027240162
d   1 1.0 
       19.9070970000       534.8524205797
d   1 1.0 
        7.2389450000        91.0755532793
d   1 1.0 
        2.6323430000        15.5084866418
d   1 1.0 
        0.9572160000         2.6408120610
d   1 1.0 
        0.3480780000         0.4496805357
d   1 1.0 
        0.1265740000         0.0765725248
d   1 1.0 
        0.0460270000         0.0130389390
d   1 1.0 
        0.0167370000         0.0022202706
f   4 1.0 
       32.1811360000      1485.3691980056
       10.7270450000       408.9486275325
        3.5756820000        52.1705547224
        1.1918940000         3.1163730569
f   1 1.0 
        0.3972980000         0.7145159560
f   1 1.0 
        0.1324330000         0.0603241996

  2 0
s   6 1.0 
    35479.1004410000         1.9229128581
     5318.4728983000         2.2734773358
     1210.4810975000         3.4747482552
      342.8551814000         5.2879612972
      112.0194318100         7.1666332516
       40.7147402500         7.7556346254
s   1 1.0 
       16.0396781100         5.7122450312
s   1 1.0 
        6.5038186700         2.9025947842
s   1 1.0 
        1.5440477500         0.9872011154
s   1 1.0 
        0.6122345300        -0.4932856223
s   1 1.0 
        0.2402798000         0.2445952611
p   4 1.0 
       80.2339004800         4.2755032106
       18.5940107400         4.7314752302
        5.6867902700         4.0864798013
        1.9511006300         2.2989954518
p   1 1.0 
        0.6697021100         0.8635593126
p   1 1.0 
        0.2165130000         0.2105208234
d   1 1.0 
        3.1070000000        20.7284714039
d   1 1.0 
        0.8550000000         2.1672588463
f   1 1.0 
        1.9170000000        24.6547062912

  3 0
s   6 1.0 
    35479.1004410000         1.9229128581
     5318.4728983000         2.2734773358
     1210.4810975000         3.4747482552
      342.8551814000         5.2879612972
      112.0194318100         7.1666332516
       40.7147402500         7.7556346254
s   1 1.0 
       16.0396781100         5.7122450312
s   1 1.0 
        6.5038186700         2.9025947842
s   1 1.0 
        1.5440477500         0.9872011154
s   1 1.0 
        0.6122345300        -0.4932856223
s   1 1.0 
        0.2402798000         0.2445952611
p   4 1.0 
       80.2339004800         4.2755032106
       18.5940107400         4.7314752302
        5.6867902700         4.0864798013
        1.9511006300         2.2989954518
p   1 1.0 
        0.6697021100         0.8635593126
p   1 1.0 
        0.2165130000         0.2105208234
d   1 1.0 
        3.1070000000        20.7284714039
d   1 1.0 
        0.8550000000         2.1672588463
f   1 1.0 
        1.9170000000        24.6547062912

[5D]
[7F]
[9G]
[MO]
 Sym=     1a
 Ene= -1.91778801672224E+03
 Spin= Alpha
 Occup= 1.000000
  1       0.088673633298
  2       0.099133543533
  3       0.174812376600
  4       0.300058242360
  5       0.339540940340
  6       0.171170427177
  7       0.009937656794
  8       0.003258587447
  9      -0.002372088154
 10       0.001565869436
 11      -0.001052940274
 12       0.000705277691
 13      -0.000466078111
 14       0.000307434439
 15      -0.000201439518
 16       0.000123024941
 17      -0.000048392965
 18       0.000012714435
 19      -0.000000052154
 20      -0.000000069518
 21      -0.000000042728
 22       0.000000122556
 23       0.000000165297
 24       0.000000101210
 25      -0.000000101641
 26      -0.000000137885
 27      -0.000000084263
 28       0.000000190428
 29       0.000000259635
 30       0.000000158405
 31      -0.000000326809
 32      -0.000000446329
 33      -0.000000272159
 34       0.000000554404
 35       0.000000757479
 36       0.000000461826
 37      -0.000001000823
 38      -0.000001366179
 39      -0.000000833191
 40       0.000001746228
 41       0.000002379325
 42       0.000001451952
 43      -0.000002548204
 44      -0.000003474370
 45      -0.000002119724
 46       0.000004685876
 47       0.000006386191
 48       0.000003896797
 49      -0.000000847663
 50      -0.000001156758
 51      -0.000000705541
 52       0.000000170184
 53       0.000000231797
 54       0.000000141468
 55      -0.000000156503
 56      -0.000000009129
 57       0.000000004158
 58       0.000000086631
 59      -0.000000260226
 60       0.000000247609
 61      -0.000000020415
 62      -0.000000052301
 63      -0.000000110114
 64       0.000000327346
 65      -0.000000400345
 66       0.000000059014
 67       0.000000118714
 68       0.000000157893
 69      -0.000000466288
 70       0.000000736528
 71      -0.000000124998
 72      -0.000000239874
 73      -0.000000277932
 74       0.000000818132
 75      -0.000001405342
 76       0.000000247577
 77       0.000000469001
 78       0.000000524239
 79      -0.000001539525
 80       0.000002175152
 81      -0.000000377291
 82      -0.000000717804
 83      -0.000000816581
 84       0.000002397373
 85      -0.000004828612
 86       0.000000806804
 87       0.000001557198
 88       0.000001830446
 89      -0.000005393218
 90       0.000000476813
 91      -0.000000097771
 92      -0.000000178220
 93      -0.000000165571
 94       0.000000488261
 95      -0.000000071312
 96       0.000000016173
 97       0.000000028656
 98       0.000000023604
 99      -0.000000069298
100      -0.000000122674
101      -0.000000056321
102      -0.000000063832
103       0.000000022487
104      -0.000000095667
105      -0.000000284356
106       0.000000090999
107       0.000000648331
108       0.000000299221
109       0.000000337957
110      -0.000000120757
111       0.000000510065
112       0.000001510146
113      -0.000000483568
114      -0.000001543369
115      -0.000000721887
116      -0.000000820586
117       0.000000302734
118      -0.000001279565
119      -0.000003695485
120       0.000001183651
121       0.000000143199
122      -0.000000660996
123       0.000001256186
124      -0.000003691702
125      -0.000007153835
126      -0.000012061533
127      -0.000000290771
128       0.000000585123
129       0.000000160445
130       0.000001379063
131      -0.000002760967
132      -0.000000755159
133      -0.000001541489
134       0.000003590593
135       0.000001050858
136       0.000000125191
137       0.000000027776
138      -0.000000096006
139       0.000000097710
140       0.000000168273
141      -0.000000748543
142      -0.000000250928
143       0.000000596219
144      -0.000000722646
145      -0.000001111585
146       0.000000036134
147      -0.000000013386
148       0.000000034841
149       0.000000025116
150       0.000000028894
151       0.000000067003
152      -0.000000016866
153       0.000000142609
154      -0.000000658425
155       0.000001251873
156      -0.000003687893
157      -0.000007161035
158      -0.000012070445
159       0.000000648348
160      -0.000000093272
161       0.000000138772
162      -0.000003079748
163       0.000000449639
164      -0.000000656489
165       0.000003914624
166      -0.000000343965
167       0.000000927726
168       0.000000127867
169      -0.000000084977
170      -0.000000007391
171      -0.000000178623
172       0.000000076636
173      -0.000000777741
174       0.000000557030
175      -0.000000033821
176       0.000001256589
177      -0.000000467255
178       0.000000031618
179       0.000000038991
180      -0.000000002202
181      -0.000000030685
182       0.000000006748
183       0.000000062093
184      -0.000000023454
 Sym=     1a
 Ene= -3.22979766920916E+02
 Spin= Alpha
 Occup= 1.000000
  1       0.033254179457
  2       0.040994440338
  3       0.073263108289
  4       0.148384738702
  5       0.204819021539
  6       0.080818522466
  7      -0.472621550090
  8      -0.600153634912
  9      -0.095487813632
 10      -0.004247267229
 11       0.003733704465
 12      -0.002646030879
 13       0.001892259607
 14      -0.001294178044
 15       0.000855159072
 16      -0.000525076403
 17       0.000207067616
 18      -0.000054483712
 19      -0.000003490754
 20      -0.000004715367
 21      -0.000002885905
 22      -0.000005434858
 23      -0.000007351721
 24      -0.000004497310
 25      -0.000004339310
 26      -0.000005871016
 27      -0.000003591249
 28       0.000000291694
 29       0.000000393139
 30       0.000000240726
 31       0.000000448837
 32       0.000000620077
 33       0.000000376688
 34      -0.000002029153
 35      -0.000002774430
 36      -0.000001691131
 37       0.000004115089
 38       0.000005617509
 39       0.000003425906
 40      -0.000007364827
 41      -0.000010032214
 42      -0.000006122574
 43       0.000010992304
 44       0.000014981160
 45       0.000009141338
 46      -0.000020022695
 47      -0.000027285041
 48      -0.000016649714
 49       0.000003606416
 50       0.000004920951
 51       0.000003001540
 52      -0.000000724107
 53      -0.000000986093
 54      -0.000000601859
 55       0.000019995640
 56       0.000001506886
 57      -0.000000075955
 58      -0.000011343306
 59       0.000034078948
 60       0.000002993750
 61       0.000000065590
 62      -0.000000221337
 63      -0.000001574567
 64       0.000004714882
 65       0.000000094619
 66      -0.000000114324
 67      -0.000000160138
 68       0.000000040680
 69      -0.000000133100
 70      -0.000002178184
 71       0.000000434754
 72       0.000000794783
 73       0.000000771780
 74      -0.000002261934
 75       0.000005784142
 76      -0.000001058168
 77      -0.000001980875
 78      -0.000002128667
 79       0.000006242221
 80      -0.000009307874
 81       0.000001640596
 82       0.000003104352
 83       0.000003476395
 84      -0.000010196755
 85       0.000020561629
 86      -0.000003442927
 87      -0.000006639930
 88      -0.000007789969
 89       0.000022948665
 90      -0.000001993986
 91       0.000000414068
 92       0.000000752151
 93       0.000000688325
 94      -0.000002029252
 95       0.000000291360
 96      -0.000000067946
 97      -0.000000119532
 98      -0.000000094991
 99       0.000000278612
100       0.000000621265
101       0.000000281414
102       0.000000318914
103      -0.000000108324
104       0.000000464788
105       0.000001409229
106      -0.000000450715
107      -0.000002933952
108      -0.000001350543
109      -0.000001524920
110       0.000000541172
111      -0.000002288632
112      -0.000006803425
113       0.000002178353
114       0.000006650609
115       0.000003109100
116       0.000003533735
117      -0.000001302043
118       0.000005504097
119       0.000015909296
120      -0.000005095624
121      -0.000000515456
122       0.000002594501
123      -0.000005196640
124       0.000015730198
125       0.000030363622
126       0.000051343194
127       0.000001286880
128      -0.000002586219
129      -0.000000708700
130      -0.000005917860
131       0.000011832551
132       0.000003234253
133       0.000006539093
134      -0.000015233136
135      -0.000004458464
136      -0.000000571426
137      -0.000000136046
138       0.000000439318
139      -0.000000459087
140      -0.000000780569
141       0.000003286369
142       0.000001111377
143      -0.000002615319
144       0.000003181122
145       0.000004895934
146      -0.000000179449
147       0.000000074703
148      -0.000000181620
149      -0.000000125143
150      -0.000000153603
151      -0.000000348858
152       0.000000077094
153      -0.000000513534
154       0.000002585171
155      -0.000005180405
156       0.000015717444
157       0.000030398019
158       0.000051382614
159      -0.000002867487
160       0.000000414077
161      -0.000000613117
162       0.000013203255
163      -0.000001934640
164       0.000002811586
165      -0.000016607150
166       0.000001458570
167      -0.000003935993
168      -0.000000584967
169       0.000000391895
170       0.000000024882
171       0.000000834716
172      -0.000000352755
173       0.000003416157
174      -0.000002446712
175       0.000000158723
176      -0.000005535032
177       0.000002059966
178      -0.000000157312
179      -0.000000207202
180       0.000000016535
181       0.000000159447
182      -0.000000041028
183      -0.000000321044
184       0.000000133248
 Sym=     1a
 Ene= -2.87561865328594E+02
 Spin= Alpha
 Occup= 1.000000
  1      -0.000000002059
  2      -0.000000002564
  3      -0.000000004413
  4      -0.000000009480
  5      -0.000000011955
  6      -0.000000006792
  7       0.000000032197
  8       0.000000023090
  9       0.000000040162
 10      -0.000000043144
 11       0.000000062357
 12      -0.000000089991
 13       0.000000081147
 14      -0.000000005634
 15       0.000000256416
 16      -0.000000814393
 17       0.000000148448
 18      -0.000000018293
 19      -0.288636061791
 20       0.208040337987
 21       0.006388681491
 22      -0.389011788989
 23       0.280388194426
 24       0.008610400577
 25      -0.246471106549
 26       0.177649085355
 27       0.005455401470
 28      -0.012577557316
 29       0.009065531147
 30       0.000278390676
 31      -0.004542695264
 32       0.003274241557
 33       0.000100552310
 34       0.003131398691
 35      -0.002257019547
 36      -0.000069318582
 37      -0.001904734624
 38       0.001372866017
 39       0.000042170555
 40       0.001201553165
 41      -0.000865981680
 42      -0.000026597119
 43      -0.000760875642
 44       0.000548318310
 45       0.000016834472
 46       0.000380024877
 47      -0.000274237268
 48      -0.000008552071
 49      -0.000155126484
 50       0.000111902354
 51       0.000003467551
 52       0.000049618096
 53      -0.000035784119
 54      -0.000001105722
 55       0.000000044871
 56      -0.000001017086
 57       0.000000790561
 58      -0.000002493455
 59      -0.000000798445
 60       0.000000013438
 61      -0.000000385991
 62       0.000000301432
 63      -0.000000945753
 64      -0.000000308733
 65      -0.000000117128
 66       0.000002946319
 67      -0.000002293337
 68       0.000007218361
 69       0.000002335381
 70       0.000000305307
 71      -0.000007605459
 72       0.000005917241
 73      -0.000018630852
 74      -0.000006026017
 75      -0.000000683963
 76       0.000016723306
 77      -0.000013004210
 78       0.000040964267
 79       0.000013235466
 80       0.000001107624
 81      -0.000026352987
 82       0.000020476317
 83      -0.000064547764
 84      -0.000020821238
 85       0.000000032436
 86       0.000003341010
 87      -0.000002678051
 88       0.000008194151
 89       0.000002853354
 90      -0.000000262663
 91       0.000005670062
 92      -0.000004391728
 93       0.000013883169
 94       0.000004450659
 95       0.000000078530
 96      -0.000001753043
 97       0.000001359228
 98      -0.000004292717
 99      -0.000001379243
100       0.000000075214
101      -0.000001456531
102       0.000000931261
103       0.000003102868
104       0.000001042246
105      -0.000000639420
106      -0.000001779032
107      -0.000001106323
108       0.000021134344
109      -0.000014520980
110      -0.000017973025
111      -0.000006951405
112      -0.000002167659
113      -0.000008653422
114       0.000000570099
115      -0.000009747657
116       0.000006834601
117       0.000005896419
118       0.000002535319
119       0.000002151591
120       0.000007023183
121      -0.000001081877
122       0.000005655372
123      -0.000011707212
124       0.000037016411
125       0.000047166673
126       0.000013541391
127       0.000004670411
128      -0.000010820173
129      -0.000003160390
130      -0.000021594185
131       0.000046836317
132       0.000013303079
133      -0.000013167062
134       0.000013804379
135       0.000002061092
136      -0.000002655204
137      -0.000001232558
138       0.000002828480
139      -0.000004076670
140      -0.000003902394
141       0.000014689946
142       0.000006611296
143      -0.000014275899
144       0.000020198906
145       0.000022316484
146      -0.000000989643
147       0.000000023745
148      -0.000000614714
149      -0.000001307944
150      -0.000000697230
151      -0.000001082257
152       0.000001622848
153       0.000001068203
154      -0.000005588271
155       0.000011586107
156      -0.000036827687
157      -0.000046944905
158      -0.000012632131
159       0.000011778140
160      -0.000001056003
161       0.000002782126
162      -0.000051708639
163       0.000005917190
164      -0.000011689967
165      -0.000017738128
166       0.000008221868
167      -0.000001474963
168       0.000002777138
169      -0.000002726321
170       0.000000268429
171      -0.000005621669
172       0.000000717372
173      -0.000015448358
174       0.000013832688
175      -0.000001648766
176       0.000029866924
177      -0.000006026584
178       0.000000927189
179       0.000000681055
180       0.000000184804
181      -0.000001350119
182      -0.000000179109
183       0.000001814252
184       0.000000719891
 Sym=     1a
 Ene= -2.87551228199025E+02
 Spin= Alpha
 Occup= 1.000000
  1       0.000000000346
  2       0.000000000409
  3       0.000000000833
  4       0.000000001351
  5       0.000000002720
  6      -0.000000000688
  7      -0.000000003073
  8      -0.000000007944
  9       0.000000003808
 10      -0.000000012658
 11       0.000000022866
 12      -0.000000036894
 13       0.000000059728
 14      -0.000000083804
 15       0.000000070023
 16      -0.000000012200
 17      -0.000000010787
 18       0.000000002784
 19       0.087313781131
 20       0.130940959601
 21      -0.319173180827
 22       0.117680244083
 23       0.176480322702
 24      -0.430176975872
 25       0.074550103337
 26       0.111799785366
 27      -0.272515899342
 28       0.003798159227
 29       0.005695948621
 30      -0.013884075851
 31       0.001371617623
 32       0.002056953645
 33      -0.005013894517
 34      -0.000939282648
 35      -0.001408590989
 36       0.003433486810
 37       0.000560361768
 38       0.000840326669
 39      -0.002048319678
 40      -0.000334877200
 41      -0.000502156579
 42       0.001224013086
 43       0.000195027414
 44       0.000292419324
 45      -0.000712768046
 46      -0.000107977294
 47      -0.000161917253
 48       0.000394669518
 49       0.000050784276
 50       0.000076164858
 51      -0.000185653715
 52      -0.000016152507
 53      -0.000024224978
 54       0.000059049126
 55      -0.000002117689
 56      -0.000001140540
 57      -0.000001497557
 58      -0.000000416443
 59       0.000001151430
 60       0.000000688895
 61       0.000000369959
 62       0.000000488483
 63       0.000000136897
 64      -0.000000374820
 65       0.000000514099
 66       0.000000277182
 67       0.000000361261
 68       0.000000097893
 69      -0.000000277964
 70      -0.000000757730
 71      -0.000000407769
 72      -0.000000530476
 73      -0.000000141112
 74       0.000000407905
 75       0.000001515626
 76       0.000000814638
 77       0.000001060541
 78       0.000000281151
 79      -0.000000815017
 80      -0.000002162827
 81      -0.000001160849
 82      -0.000001512438
 83      -0.000000399211
 84       0.000001161111
 85       0.000002075780
 86       0.000001120111
 87       0.000001461822
 88       0.000000402323
 89      -0.000001124720
 90       0.000001454932
 91       0.000000777206
 92       0.000001030273
 93       0.000000284724
 94      -0.000000787756
 95      -0.000000470945
 96      -0.000000251824
 97      -0.000000333325
 98      -0.000000092076
 99       0.000000255038
100       0.000001961238
101       0.000000090951
102      -0.000000153801
103      -0.000000872138
104       0.000002498546
105      -0.000001597827
106       0.000000439293
107       0.000001758548
108      -0.000000875607
109      -0.000001415123
110      -0.000000642856
111       0.000001701041
112      -0.000000841592
113       0.000000215127
114      -0.000003231501
115       0.000001230267
116       0.000002116838
117       0.000001229797
118      -0.000003330942
119       0.000001755311
120      -0.000000463574
121      -0.000000000175
122       0.000000000897
123      -0.000000001790
124       0.000000005090
125       0.000000007163
126       0.000000005991
127       0.000000571726
128       0.000000854928
129      -0.000002088104
130      -0.000001518038
131      -0.000002266906
132       0.000005541410
133       0.000002485997
134       0.000003727599
135      -0.000009088523
136       0.000001118393
137      -0.000001492649
138       0.000002187740
139       0.000001365299
140      -0.000000131754
141      -0.000003502232
142       0.000004643885
143      -0.000006831554
144      -0.000004258466
145       0.000000420726
146      -0.000001568759
147      -0.000000745598
148       0.000002014118
149      -0.000000906312
150      -0.000002214802
151       0.000000570667
152      -0.000001483943
153      -0.000000000614
154       0.000000003197
155      -0.000000006564
156       0.000000020339
157       0.000000026813
158       0.000000011901
159       0.000000566075
160       0.000000860996
161      -0.000002097497
162      -0.000001496434
163      -0.000002293531
164       0.000005585540
165       0.000002495133
166       0.000003736337
167      -0.000009110265
168       0.000000961006
169       0.000002614114
170      -0.000000713735
171      -0.000000951211
172      -0.000001002676
173      -0.000003016072
174      -0.000008178801
175       0.000002218107
176       0.000002962244
177       0.000003143875
178      -0.000001717479
179       0.000001889912
180       0.000000001752
181       0.000002171341
182      -0.000001229356
183       0.000001269090
184       0.000000995819
 Sym=     1a
 Ene= -2.87551064851658E+02
 Spin= Alpha
 Occup= 1.000000
  1       0.000000716768
  2       0.000000852446
  3       0.000001703358
  4       0.000002854328
  5       0.000005494716
  6      -0.000001133436
  7      -0.000006769240
  8      -0.000016062793
  9       0.000007170503
 10      -0.000024531823
 11       0.000044594080
 12      -0.000072092393
 13       0.000116846029
 14      -0.000164034787
 15       0.000137206800
 16      -0.000024214800
 17      -0.000021106208
 18       0.000005454643
 19       0.188947201474
 20       0.257317091597
 21       0.157253315999
 22       0.254659302113
 23       0.346806887938
 24       0.211942910953
 25       0.161325765161
 26       0.219700935110
 27       0.134265083098
 28       0.008217484292
 29       0.011190950958
 30       0.006839089530
 31       0.002971417887
 32       0.004046619889
 33       0.002472992622
 34      -0.002038961012
 35      -0.002776757839
 36      -0.001696942561
 37       0.001224701700
 38       0.001667847874
 39       0.001019254806
 40      -0.000746472806
 41      -0.001016489110
 42      -0.000621198690
 43       0.000449031877
 44       0.000611343482
 45       0.000373613283
 46      -0.000242268980
 47      -0.000330362319
 48      -0.000201797594
 49       0.000108118371
 50       0.000147376276
 51       0.000090040177
 52      -0.000034364556
 53      -0.000046829412
 54      -0.000028613264
 55      -0.000001355244
 56       0.000001500707
 57       0.000002098799
 58      -0.000000462115
 59       0.000001556786
 60      -0.000000348489
 61      -0.000000380842
 62      -0.000000461102
 63       0.000000469759
 64      -0.000001448007
 65       0.000003121857
 66      -0.000000790186
 67      -0.000001355144
 68      -0.000000980621
 69       0.000002841148
 70      -0.000007817348
 71       0.000001830475
 72       0.000003197333
 73       0.000002573166
 74      -0.000007473257
 75       0.000017070962
 76      -0.000004006561
 77      -0.000006984254
 78      -0.000005627169
 79       0.000016304374
 80      -0.000027091701
 81       0.000006204831
 82       0.000010859169
 83       0.000009085644
 84      -0.000026263691
 85       0.000007706299
 86      -0.000002364637
 87      -0.000003990048
 88      -0.000001942942
 89       0.000005937414
 90       0.000004716765
 91      -0.000001686286
 92      -0.000002666351
 93      -0.000001140046
 94       0.000003123187
 95      -0.000001519280
 96       0.000000544784
 97       0.000000863352
 98       0.000000362300
 99      -0.000001000274
100       0.000000945331
101       0.000000261896
102       0.000000295382
103       0.000000079688
104      -0.000000154293
105       0.000000799332
106      -0.000000241835
107      -0.000011989129
108      -0.000005245965
109      -0.000005923907
110       0.000001821651
111      -0.000007958428
112      -0.000025620267
113       0.000008175019
114       0.000006878191
115       0.000002846999
116       0.000003268904
117      -0.000000817276
118       0.000003907130
119       0.000013638305
120      -0.000004344662
121      -0.000000779244
122       0.000004042410
123      -0.000008240823
124       0.000024998727
125       0.000033390888
126       0.000017968701
127       0.000005118223
128      -0.000006237730
129      -0.000001158048
130      -0.000019131237
131       0.000027306015
132       0.000005965564
133       0.000003269395
134       0.000008575280
135       0.000004413159
136      -0.000002301038
137      -0.000000891653
138       0.000000523368
139      -0.000000367164
140      -0.000004568028
141       0.000010921850
142       0.000004362850
143      -0.000004670295
144       0.000005246655
145       0.000020237084
146       0.000000025648
147       0.000001124639
148      -0.000001039622
149       0.000000974680
150      -0.000000561760
151      -0.000001899956
152      -0.000002490360
153      -0.000000772305
154       0.000004008540
155      -0.000008180486
156       0.000024916536
157       0.000033312134
158       0.000017539767
159      -0.000007538769
160       0.000002904942
161      -0.000000866143
162       0.000032169031
163      -0.000009660540
164       0.000004819181
165       0.000007478554
166       0.000005679569
167       0.000004375304
168      -0.000002338403
169       0.000000481024
170      -0.000000555993
171       0.000003007096
172      -0.000003458296
173       0.000011256383
174      -0.000004453972
175       0.000002216131
176      -0.000016398375
177       0.000013232769
178       0.000000175540
179      -0.000001321698
180       0.000000790201
181      -0.000000582213
182      -0.000000839272
183      -0.000000073734
184       0.000003135585
 Sym=     1a
 Ene= -7.40071921876501E+01
 Spin= Alpha
 Occup= 1.000000
  1       0.015542475386
  2       0.019413165516
  3       0.035018365907
  4       0.072125334741
  5       0.105150426205
  6       0.037297157520
  7      -0.360886404059
  8      -0.694542020902
  9       0.423363104298
 10       0.914549156953
 11       0.047150687837
 12       0.035501269543
 13      -0.023996548235
 14       0.016436858291
 15      -0.011056050304
 16       0.006811431121
 17      -0.002695956719
 18       0.000710952193
 19      -0.000008995125
 20      -0.000012071513
 21      -0.000007405341
 22      -0.000013579429
 23      -0.000018211582
 24      -0.000011174429
 25      -0.000004167822
 26      -0.000005682661
 27      -0.000003467407
 28       0.000042155994
 29       0.000056757978
 30       0.000034779026
 31       0.000007384240
 32       0.000009630936
 33       0.000005968471
 34       0.000026974074
 35       0.000036833742
 36       0.000022460867
 37      -0.000050783653
 38      -0.000069281382
 39      -0.000042260506
 40       0.000096502333
 41       0.000131360089
 42       0.000080186459
 43      -0.000143042725
 44      -0.000194840695
 45      -0.000118911261
 46       0.000258924497
 47       0.000352791158
 48       0.000215287291
 49      -0.000046829408
 50      -0.000063891208
 51      -0.000038971933
 52       0.000009412525
 53       0.000012815216
 54       0.000007822274