[Molden Format]
[Title]
 Molden file created by orca_2mkl for BaseName=/home/smirnovaanastasia2304_2125/_scratch/HERBD/Gd_Cl_cc

[Atoms] AU
Gd   1  64          0.2640665505         0.4615315931        -0.6988226141 
Cl   2  17         -1.6328443222        -2.5247742704        -3.7198824309 
Cl   3  17         -1.8418366942         4.5091964706         0.3559866091 
Cl   4  17          4.7772012104        -0.2304747787         0.2254008641 
[GTO]
  1 0
s   6 1.0 
  1133304.9414800000      2174.9610498235
   503691.0851020000      -577.4941628565
   223862.7044900000      1271.8793195317
    99494.5353290000       292.2852755405
    44219.7934790000       774.9724147105
    19653.2415460000       586.7258609135
s   1 1.0 
     8734.7740210000       643.9451069508
s   1 1.0 
     3882.1217870000       350.5193187461
s   1 1.0 
     1725.3874610000       190.7985502128
s   1 1.0 
      766.8388710000       103.8575758734
s   1 1.0 
      340.8172760000        56.5329037360
s   1 1.0 
      151.4743450000        30.7726150905
s   1 1.0 
       67.3219310000        16.7504899843
s   1 1.0 
       29.9208580000         9.1178118166
s   1 1.0 
       13.2981590000         4.9631080848
s   1 1.0 
        5.9102930000         2.7015738927
s   1 1.0 
        2.6267970000         1.4705506110
s   1 1.0 
        1.1674650000         0.8004661926
s   1 1.0 
        0.5188730000         0.4357183963
s   1 1.0 
        0.2306100000         0.2371748825
s   1 1.0 
        0.1024940000         0.1291022836
s   1 1.0 
        0.0455530000         0.0702745106
s   1 1.0 
        0.0202460000         0.0382529133
p   5 1.0 
    15432.8043060000      3126.8623215264
     6173.1217220000      1264.6366638851
     2469.2486890000      2002.5787782743
      987.6994760000      1963.6893411004
      395.0797900000      1867.4733471641
p   1 1.0 
      158.0319160000       798.6768471840
p   1 1.0 
       63.2127660000       254.0657253142
p   1 1.0 
       25.2851070000        80.8204162074
p   1 1.0 
       10.1140430000        25.7096451541
p   1 1.0 
        4.0456170000         8.1784507898
p   1 1.0 
        1.6182470000         2.6016334098
p   1 1.0 
        0.6472990000         0.8276014788
p   1 1.0 
        0.2589190000         0.2632661299
p   1 1.0 
        0.1035680000         0.0837475431
p   1 1.0 
        0.0414270000         0.0266406271
p   1 1.0 
        0.0165710000         0.0084747322
d   4 1.0 
     1092.7062230000      4841.5336151871
      397.3477180000      4644.8935401418
      144.4900790000      4335.5630527329
       52.5418470000      2336.0290078754
d   1 1.0 
       19.1061260000       497.7625276697
d   1 1.0 
        6.9476820000        84.7598081537
d   1 1.0 
        2.5264300000        14.4330396780
d   1 1.0 
        0.9187020000         2.4576823001
d   1 1.0 
        0.3340730000         0.4184971391
d   1 1.0 
        0.1214810000         0.0712622795
d   1 1.0 
        0.0441750000         0.0121347005
d   1 1.0 
        0.0160640000         0.0020663984
f   4 1.0 
       34.7127000000      1486.0079731034
       11.5709000000       452.7076001348
        3.8569670000        63.6295197498
        1.2856560000         3.8109128600
f   1 1.0 
        0.4285520000         0.8472430467
f   1 1.0 
        0.1428510000         0.0715298757

  2 0
s   7 1.0 
    69507.9909450000         4.1142286333
    10426.1568800000         4.2286655222
     2373.2334061000         5.8493829067
      671.5642007100         8.3358677251
      218.4199979000        10.0089622684
       77.5722497100         8.2783277553
       28.8888152800         2.9822029766
s   1 1.0 
      127.1052718500        26.9794296956
s   1 1.0 
       39.3395829600        11.1952141621
s   1 1.0 
        7.6740680000         3.2860890225
s   1 1.0 
        3.8745627600        -1.9682357562
s   1 1.0 
        1.8385832600         1.1253110111
s   1 1.0 
        0.5022905800        -0.4252324193
s   1 1.0 
        0.1796272300         0.1966478587
p   6 1.0 
      666.5042328400        13.1758105786
      157.6424169000        16.0544655669
       50.2625209800        17.4320614645
       18.5360781100        14.3789566857
        7.2940532800         7.6571902731
        2.9433249000         1.9874071930
p   1 1.0 
        1.0404970800         1.4979287975
p   1 1.0 
        0.3845641500        -0.4316692201
p   1 1.0 
        0.1306964300         0.1120133392
d   2 1.0 
        4.6100000000         7.5524217504
        1.0110000000         2.6539585854
d   1 1.0 
        0.3390000000         0.4293579962
f   1 1.0 
        0.7060000000         2.6050175686

  3 0
s   7 1.0 
    69507.9909450000         4.1142286333
    10426.1568800000         4.2286655222
     2373.2334061000         5.8493829067
      671.5642007100         8.3358677251
      218.4199979000        10.0089622684
       77.5722497100         8.2783277553
       28.8888152800         2.9822029766
s   1 1.0 
      127.1052718500        26.9794296956
s   1 1.0 
       39.3395829600        11.1952141621
s   1 1.0 
        7.6740680000         3.2860890225
s   1 1.0 
        3.8745627600        -1.9682357562
s   1 1.0 
        1.8385832600         1.1253110111
s   1 1.0 
        0.5022905800        -0.4252324193
s   1 1.0 
        0.1796272300         0.1966478587
p   6 1.0 
      666.5042328400        13.1758105786
      157.6424169000        16.0544655669
       50.2625209800        17.4320614645
       18.5360781100        14.3789566857
        7.2940532800         7.6571902731
        2.9433249000         1.9874071930
p   1 1.0 
        1.0404970800         1.4979287975
p   1 1.0 
        0.3845641500        -0.4316692201
p   1 1.0 
        0.1306964300         0.1120133392
d   2 1.0 
        4.6100000000         7.5524217504
        1.0110000000         2.6539585854
d   1 1.0 
        0.3390000000         0.4293579962
f   1 1.0 
        0.7060000000         2.6050175686

  4 0
s   7 1.0 
    69507.9909450000         4.1142286333
    10426.1568800000         4.2286655222
     2373.2334061000         5.8493829067
      671.5642007100         8.3358677251
      218.4199979000        10.0089622684
       77.5722497100         8.2783277553
       28.8888152800         2.9822029766
s   1 1.0 
      127.1052718500        26.9794296956
s   1 1.0 
       39.3395829600        11.1952141621
s   1 1.0 
        7.6740680000         3.2860890225
s   1 1.0 
        3.8745627600        -1.9682357562
s   1 1.0 
        1.8385832600         1.1253110111
s   1 1.0 
        0.5022905800        -0.4252324193
s   1 1.0 
        0.1796272300         0.1966478587
p   6 1.0 
      666.5042328400        13.1758105786
      157.6424169000        16.0544655669
       50.2625209800        17.4320614645
       18.5360781100        14.3789566857
        7.2940532800         7.6571902731
        2.9433249000         1.9874071930
p   1 1.0 
        1.0404970800         1.4979287975
p   1 1.0 
        0.3845641500        -0.4316692201
p   1 1.0 
        0.1306964300         0.1120133392
d   2 1.0 
        4.6100000000         7.5524217504
        1.0110000000         2.6539585854
d   1 1.0 
        0.3390000000         0.4293579962
f   1 1.0 
        0.7060000000         2.6050175686

[5D]
[7F]
[9G]
[MO]
 Sym=     1a
 Ene= -1.85304888673141E+03
 Spin= Alpha
 Occup= 1.000000
  1       0.086997670940
  2       0.097960339800
  3       0.173997999121
  4       0.299847678504
  5       0.340956849884
  6       0.172342213633
  7       0.010167356018
  8       0.003229783203
  9      -0.002351502987
 10       0.001552242096
 11      -0.001046161761
 12       0.000703508239
 13      -0.000468621468
 14       0.000314747085
 15      -0.000210316846
 16       0.000122030557
 17      -0.000040550569
 18       0.000009593344
 19      -0.000000064108
 20      -0.000000028704
 21       0.000000124330
 22       0.000000058360
 23       0.000000033026
 24      -0.000000118469
 25      -0.000000051748
 26      -0.000000025998
 27       0.000000103573
 28       0.000000063500
 29       0.000000031618
 30      -0.000000127845
 31      -0.000000093526
 32      -0.000000045528
 33       0.000000188549
 34       0.000000150599
 35       0.000000071428
 36      -0.000000303501
 37      -0.000000259390
 38      -0.000000120069
 39       0.000000522907
 40       0.000000449969
 41       0.000000206720
 42      -0.000000911518
 43      -0.000000682117
 44      -0.000000397474
 45       0.000001432610
 46       0.000000742880
 47       0.000000662711
 48      -0.000001685223
 49      -0.000000104592
 50      -0.000000014667
 51       0.000000197867
 52      -0.000000016540
 53      -0.000000030043
 54       0.000000041491
 55      -0.000000008933
 56       0.000000008356
 57       0.000000012937
 58       0.000000002030
 59      -0.000000005124
 60       0.000000109340
 61      -0.000000095282
 62      -0.000000152562
 63      -0.000000018451
 64       0.000000067580
 65      -0.000000270529
 66       0.000000236024
 67       0.000000377567
 68       0.000000045897
 69      -0.000000166994
 70       0.000000567275
 71      -0.000000495800
 72      -0.000000791954
 73      -0.000000096834
 74       0.000000349462
 75      -0.000001145373
 76       0.000001004316
 77       0.000001600175
 78       0.000000197549
 79      -0.000000703000
 80       0.000002222938
 81      -0.000001953437
 82      -0.000003099582
 83      -0.000000382768
 84       0.000001359468
 85      -0.000003725140
 86       0.000003219385
 87       0.000005127797
 88       0.000000582394
 89      -0.000002311427
 90       0.000000324766
 91      -0.000000213417
 92      -0.000000452454
 93      -0.000000006438
 94       0.000000259593
 95       0.000000113814
 96      -0.000000101783
 97      -0.000000154468
 98      -0.000000020348
 99       0.000000067401
100      -0.000000051392
101      -0.000000094640
102      -0.000000127191
103       0.000000076583
104      -0.000000196794
105      -0.000000300404
106       0.000000080826
107       0.000000329643
108       0.000000592111
109       0.000000799084
110      -0.000000483458
111       0.000001252800
112       0.000001902704
113      -0.000000510043
114      -0.000000840538
115      -0.000001307256
116      -0.000001849928
117       0.000001093379
118      -0.000003011514
119      -0.000004523639
120       0.000001187847
121       0.000000076264
122      -0.000000086035
123       0.000000081654
124      -0.000000626521
125      -0.000001313203
126      -0.000001131890
127      -0.000000450196
128      -0.000005945063
129       0.000000052564
130       0.000000079199
131       0.000000076870
132      -0.000000319651
133      -0.000000482416
134      -0.000000470846
135       0.000000009784
136       0.000000050964
137       0.000000081827
138      -0.000001128145
139      -0.000002096309
140      -0.000002152560
141       0.000000036697
142      -0.000000207822
143      -0.000000277679
144       0.000000031296
145      -0.000000097346
146      -0.000000025000
147       0.000000895712
148       0.000001238098
149      -0.000000211431
150       0.000000591308
151      -0.000000538312
152       0.000000450346
153       0.000000682466
154      -0.000000462110
155       0.000001011053
156       0.000000481358
157      -0.000000066319
158       0.000000071195
159      -0.000000080283
160       0.000000076078
161      -0.000000581772
162      -0.000001213191
163      -0.000001034240
164      -0.000000480243
165      -0.000006044702
166       0.000000053749
167      -0.000000099232
168      -0.000000029436
169      -0.000000312521
170       0.000000578596
171       0.000000170225
172       0.000000111393
173      -0.000000254056
174      -0.000000030914
175      -0.000001452132
176       0.000002870860
177       0.000000673460
178       0.000000185339
179      -0.000000014839
180      -0.000000194385
181       0.000000112079
182       0.000000225474
183      -0.000000718821
184      -0.000000056811
185       0.000000714097
186      -0.000000541264
187      -0.000000963416
188       0.000000500407
189      -0.000000344397
190       0.000000621283
191       0.000000444431
192       0.000000476532
193       0.000001080966
194      -0.000000106201
195       0.000000075129
196      -0.000000084746
197       0.000000080402
198      -0.000000616425
199      -0.000001290430
200      -0.000001108910
201      -0.000000446348
202      -0.000005916424
203      -0.000000116959
204       0.000000018060
205      -0.000000027830
206       0.000000708292
207      -0.000000108566
208       0.000000166529
209      -0.000000120186
210       0.000000018116
211       0.000000012628
212       0.000003112862
213      -0.000000574147
214       0.000000462636
215       0.000000187424
216      -0.000000175591
217      -0.000000075703
218      -0.000000232960
219       0.000000085606
220      -0.000000788033
221       0.000000725282
222       0.000000174255
223       0.000001151979
224      -0.000000377680
225       0.000000457757
226       0.000000762515
227      -0.000000126194
228      -0.000000589261
229       0.000000090218
230       0.000000993711
231      -0.000000510421
 Sym=     1a
 Ene= -3.10662030429125E+02
 Spin= Alpha
 Occup= 1.000000
  1       0.032481146820
  2       0.040293233430
  3       0.072582005607
  4       0.147582363812
  5       0.205319680112
  6       0.084145490127
  7      -0.468436839664
  8      -0.603402982854
  9      -0.098303555400
 10      -0.004142752923
 11       0.003623079092
 12      -0.002583667223
 13       0.001870418597
 14      -0.001304178589
 15       0.000879290117
 16      -0.000513361009
 17       0.000170535684
 18      -0.000040390534
 19       0.000000064328
 20      -0.000000430517
 21       0.000000208330
 22       0.000000136731
 23      -0.000000586175
 24       0.000000203677
 25       0.000000273577
 26      -0.000000393309
 27      -0.000000161794
 28       0.000000092612
 29       0.000000026869
 30      -0.000000151983
 31       0.000000224380
 32       0.000000075122
 33      -0.000000438100
 34      -0.000000557288
 35      -0.000000251725
 36       0.000001119477
 37       0.000001029729
 38       0.000000463967
 39      -0.000002072818
 40      -0.000001852245
 41      -0.000000837005
 42       0.000003749521
 43       0.000002878432
 44       0.000001678542
 45      -0.000006048524
 46      -0.000003131718
 47      -0.000002831125
 48       0.000007122142
 49       0.000000439307
 50       0.000000058684
 51      -0.000000829456
 52       0.000000070594
 53       0.000000129168
 54      -0.000000177611
 55       0.000000012260
 56      -0.000000065032
 57      -0.000000046353
 58      -0.000000052760
 59      -0.000000032608
 60      -0.000000301408
 61       0.000000283950
 62       0.000000433508
 63       0.000000071079
 64      -0.000000170828
 65       0.000000965744
 66      -0.000000860632
 67      -0.000001356470
 68      -0.000000179864
 69       0.000000582521
 70      -0.000002224736
 71       0.000001957923
 72       0.000003113351
 73       0.000000391730
 74      -0.000001360518
 75       0.000004812103
 76      -0.000004225197
 77      -0.000006725837
 78      -0.000000834646
 79       0.000002949237
 80      -0.000009417494
 81       0.000008281416
 82       0.000013133466
 83       0.000001625769
 84      -0.000005754959
 85       0.000015837189
 86      -0.000013684004
 87      -0.000021795324
 88      -0.000002473155
 89       0.000009828531
 90      -0.000001370032
 91       0.000000893482
 92       0.000001908563
 93       0.000000022617
 94      -0.000001100879
 95      -0.000000481562
 96       0.000000431181
 97       0.000000653295
 98       0.000000086339
 99      -0.000000284680
100       0.000000244986
101       0.000000452660
102       0.000000609201
103      -0.000000364860
104       0.000000937631
105       0.000001434520
106      -0.000000386156
107      -0.000001428430
108      -0.000002566871
109      -0.000003463645
110       0.000002095468
111      -0.000005429442
112      -0.000008246424
113       0.000002210600
114       0.000003597582
115       0.000005590525
116       0.000007913583
117      -0.000004675837
118       0.000012884190
119       0.000019353250
120      -0.000005081142
121      -0.000000139670
122       0.000000199682
123      -0.000000319359
124       0.000002369045
125       0.000005122414
126       0.000004448424
127       0.000001736468
128       0.000025295865
129      -0.000000229742
130      -0.000000346706
131      -0.000000337443
132       0.000001349150
133       0.000002036255
134       0.000001987545
135      -0.000000115151
136      -0.000000330863
137      -0.000000463620
138       0.000004756138
139       0.000008866670
140       0.000009106540
141      -0.000000151372
142       0.000000908141
143       0.000001218392
144      -0.000000142747
145       0.000000435217
146       0.000000119435
147      -0.000003798003
148      -0.000005242693
149       0.000000886599
150      -0.000002492661
151       0.000002283557
152      -0.000001907874
153      -0.000002891148
154       0.000001957721
155      -0.000004282209
156      -0.000002036890
157       0.000000280196
158      -0.000000130134
159       0.000000186090
160      -0.000000297229
161       0.000002197186
162       0.000004727616
163       0.000004060217
164       0.000001895291
165       0.000025759846
166      -0.000000234658
167       0.000000434151
168       0.000000127941
169       0.000001314525
170      -0.000002433248
171      -0.000000716212
172      -0.000000556489
173       0.000001239743
174       0.000000172931
175       0.000006148514
176      -0.000012160869
177      -0.000002847947
178      -0.000000808074
179       0.000000057017
180       0.000000843419
181      -0.000000496638
182      -0.000000988817
183       0.000003039879
184       0.000000226274
185      -0.000003027618
186       0.000002274216
187       0.000004063849
188      -0.000002118280
189       0.000001458482
190      -0.000002628885
191      -0.000001883456
192      -0.000002014630
193      -0.000004572133
194       0.000000447623
195      -0.000000137517
196       0.000000196607
197      -0.000000314348
198       0.000002329888
199       0.000005031522
200       0.000004355775
201       0.000001725516
202       0.000025180527
203       0.000000512326
204      -0.000000078926
205       0.000000120996
206      -0.000002987866
207       0.000000457995
208      -0.000000702372
209       0.000000684694
210      -0.000000102964
211      -0.000000017434
212      -0.000013165706
213       0.000002435913
214      -0.000001943681
215      -0.000000819832
216       0.000000764525
217       0.000000322027
218       0.000001029031
219      -0.000000376530
220       0.000003337877
221      -0.000003078125
222      -0.000000752938
223      -0.000004865156
224       0.000001596429
225      -0.000001939378
226      -0.000003230295
227       0.000000535563
228       0.000002496726
229      -0.000000379169
230      -0.000004206523
231       0.000002162630
 Sym=     1a
 Ene= -2.76905315423394E+02
 Spin= Alpha
 Occup= 1.000000
  1      -0.000000001006
  2      -0.000000000858
  3      -0.000000003483
  4      -0.000000000254
  5      -0.000000016301
  6       0.000000022146
  7      -0.000000047503
  8       0.000000105862
  9      -0.000000137021
 10       0.000000327121
 11      -0.000000578855
 12       0.000000947582
 13      -0.000001555022
 14       0.000002264964
 15      -0.000001834516
 16       0.000000252121
 17      -0.000000118080
 18       0.000000012924
 19       0.281317834756
 20       0.114878803787
 21       0.182716455754
 22       0.380527837710
 23       0.155392136944
 24       0.247153536076
 25       0.241796791129
 26       0.098740018159
 27       0.157047464870
 28       0.012611133450
 29       0.005149821033
 30       0.008190953446
 31       0.004433340058
 32       0.001810500860
 33       0.002879465306
 34      -0.003057956943
 35      -0.001248938189
 36      -0.001986156073
 37       0.001863990782
 38       0.000761531453
 39       0.001210686484
 40      -0.001182817071
 41      -0.000483650707
 42      -0.000768304275
 43       0.000768564867
 44       0.000314703722
 45       0.000499265400
 46      -0.000444577379
 47      -0.000181997898
 48      -0.000288645354
 49       0.000163165375
 50       0.000066671801
 51       0.000106016888
 52      -0.000043712175
 53      -0.000017829378
 54      -0.000028417150
 55       0.000000028197
 56      -0.000000024368
 57       0.000000103854
 58      -0.000000134974
 59       0.000000118109
 60      -0.000001125510
 61      -0.000000253737
 62      -0.000001662925
 63       0.000002056869
 64      -0.000001666645
 65       0.000004048374
 66       0.000001131216
 67       0.000005256963
 68      -0.000006558063
 69       0.000004911151
 70      -0.000009329264
 71      -0.000002539218
 72      -0.000012341199
 73       0.000015374592
 74      -0.000011666835
 75       0.000019456030
 76       0.000005296864
 77       0.000025773409
 78      -0.000032092995
 79       0.000024371152
 80      -0.000033124511
 81      -0.000008998468
 82      -0.000043975038
 83       0.000054740185
 84      -0.000041618862
 85       0.000026311641
 86       0.000006831848
 87       0.000034681448
 88      -0.000043573437
 89       0.000033171009
 90       0.000000317691
 91       0.000000132131
 92       0.000000211170
 93      -0.000000302848
 94       0.000000097495
 95      -0.000002615780
 96      -0.000000698608
 97      -0.000003375567
 98       0.000004250736
 99      -0.000003195384
100       0.000002502194
101       0.000000715754
102      -0.000002105696
103      -0.000000062252
104      -0.000002339831
105       0.000001344993
106      -0.000001198928
107      -0.000013917995
108      -0.000004041885
109       0.000011834335
110       0.000000210521
111       0.000013048361
112      -0.000007499920
113       0.000006813482
114       0.000012052722
115       0.000004247822
116      -0.000010959579
117       0.000000965150
118      -0.000011029356
119       0.000006728346
120      -0.000007492515
121       0.000000500803
122      -0.000000712450
123       0.000001173614
124      -0.000008494049
125      -0.000017474532
126      -0.000012622468
127       0.000015947898
128      -0.000029184061
129       0.000001916280
130       0.000003269485
131       0.000003249703
132      -0.000011793972
133      -0.000019591127
134      -0.000019572310
135      -0.000017083821
136      -0.000026081764
137      -0.000026456793
138      -0.000014212604
139      -0.000020394825
140      -0.000020974887
141      -0.000001761674
142      -0.000005102641
143      -0.000008891249
144       0.000003125538
145      -0.000005303839
146       0.000007855158
147       0.000024614711
148       0.000040685160
149      -0.000013256787
150       0.000025066454
151      -0.000008136647
152       0.000007446497
153       0.000013644300
154      -0.000011465167
155       0.000018349998
156       0.000010408262
157       0.000000753863
158      -0.000000021390
159       0.000000030415
160      -0.000000050051
161       0.000000360934
162       0.000000738590
163       0.000000525779
164      -0.000000643579
165       0.000001527689
166      -0.000000192701
167       0.000000154756
168      -0.000000009569
169       0.000000725760
170      -0.000001064113
171      -0.000000202226
172      -0.000001544992
173      -0.000002261928
174      -0.000001812729
175       0.000000806023
176      -0.000001321744
177      -0.000000290777
178      -0.000000565520
179      -0.000000189303
180      -0.000000230537
181       0.000000276021
182      -0.000000715205
183       0.000001602853
184       0.000000776519
185      -0.000000558273
186       0.000000751455
187       0.000001537852
188       0.000000738492
189       0.000002026831
190      -0.000001801141
191       0.000002604534
192       0.000000293445
193      -0.000002167295
194      -0.000004608803
195      -0.000000468063
196       0.000000665777
197      -0.000001096335
198       0.000007924384
199       0.000016268324
200       0.000011666385
201      -0.000015000667
202       0.000028485189
203       0.000004567953
204      -0.000000818094
205       0.000000848681
206      -0.000027429110
207       0.000004674536
208      -0.000005283887
209      -0.000036833608
210       0.000005215242
211      -0.000007974657
212      -0.000030171616
213       0.000003801214
214      -0.000006885202
215      -0.000005214132
216       0.000003326945
217      -0.000000787436
218       0.000009057626
219      -0.000003454144
220       0.000023478369
221      -0.000016392230
222       0.000003297085
223      -0.000041615816
224       0.000014378678
225      -0.000006730035
226      -0.000014439441
227       0.000002854893
228       0.000007789209
229      -0.000003647081
230      -0.000017949855
231       0.000011859889
 Sym=     1a
 Ene= -2.76905304541590E+02
 Spin= Alpha
 Occup= 1.000000
  1       0.000000043506
  2       0.000000057448
  3       0.000000087374
  4       0.000000235987
  5       0.000000195219
  6       0.000000316186
  7      -0.000001224057
  8      -0.000000113096
  9      -0.000001069133
 10       0.000002637020
 11      -0.000004664427
 12       0.000007473617
 13      -0.000011806764
 14       0.000016145240
 15      -0.000011760615
 16      -0.000000229102
 17       0.000001319604
 18      -0.000000743028
 19      -0.184900697342
 20       0.283113958359
 21       0.106679361454
 22      -0.250108003071
 23       0.382957187552
 24       0.144301070259
 25      -0.158924804662
 26       0.243340566538
 27       0.091692420564
 28      -0.008288659442
 29       0.012690909966
 30       0.004782359095
 31      -0.002914281188
 32       0.004463042845
 33       0.001681075530
 34       0.002010612801
 35      -0.003080022580
 36      -0.001159431570
 37      -0.001226363823
 38       0.001880346778
 39       0.000706494243
 40       0.000779220271
 41      -0.001197570698
 42      -0.000447791812
 43      -0.000506932446
 44       0.000782198363
 45       0.000290042733
 46       0.000293374264
 47      -0.000453552864
 48      -0.000167064713
 49      -0.000106918638
 50       0.000163714310
 51       0.000061761817
 52       0.000028321229
 53      -0.000043002281
 54      -0.000016550331
 55      -0.000000078303
 56      -0.000000021633
 57       0.000000041143
 58      -0.000000073079
 59      -0.000000119228
 60      -0.000000499537
 61      -0.000001552503
 62       0.000000079272
 63      -0.000001895458
 64      -0.000001842800
 65       0.000001797105
 66       0.000004437462
 67       0.000000167805
 68       0.000006252433
 69       0.000005648037
 70      -0.000004194726
 71      -0.000010682700
 72      -0.000000188973
 73      -0.000014691366
 74      -0.000013472235
 75       0.000008728006
 76       0.000022316260
 77       0.000000385485
 78       0.000030620205
 79       0.000028105027
 80      -0.000014826997
 81      -0.000037919605
 82      -0.000000496919
 83      -0.000051904545
 84      -0.000047770724
 85       0.000012861092
 86       0.000029400138
 87      -0.000001608695
 88       0.000041155703
 89       0.000038851206
 90       0.000000049398
 91      -0.000000305153
 92       0.000000213639
 93       0.000000010421
 94      -0.000000214752
 95      -0.000001275961
 96      -0.000002888120
 97       0.000000029438
 98      -0.000004153845
 99      -0.000003815715
100       0.000001432341
101      -0.000002939234
102       0.000000992125
103       0.000002872357
104      -0.000000268039
105       0.000000753638
106       0.000000595345
107      -0.000007928001
108       0.000016365008
109      -0.000005502838
110      -0.000015928805
111       0.000001545730
112      -0.000004146743
113      -0.000003294706
114       0.000007204084
115      -0.000014139003
116       0.000005708395
117       0.000013397696
118      -0.000000231746
119       0.000005509873
120       0.000002403171
121       0.000000283090
122      -0.000000402690
123       0.000000663279
124      -0.000004797705
125      -0.000009858410
126      -0.000007077421
127       0.000009595701
128      -0.000013065891
129       0.000001325791
130       0.000001741454
131       0.000001868855
132      -0.000007636938
133      -0.000010796414
134      -0.000011298068
135      -0.000008769763
136      -0.000016415736
137      -0.000015755400
138      -0.000007184603
139      -0.000011368937
140      -0.000011317055
141      -0.000001090605
142      -0.000003439118
143      -0.000004548286
144       0.000000796909
145      -0.000003597420
146       0.000004738252
147       0.000014911614
148       0.000022389948
149      -0.000005699861
150       0.000015584636
151      -0.000004508025
152       0.000006018788
153       0.000006425377
154      -0.000001209377
155       0.000012810397
156       0.000005352341
157      -0.000004247943
158      -0.000000527883
159       0.000000750431
160      -0.000001234121
161       0.000008876983
162       0.000018080497
163       0.000012608392
164      -0.000017534533
165       0.000034465373
166      -0.000002495892
167       0.000004814290
168       0.000001248353
169       0.000014819240
170      -0.000028478283
171      -0.000007433341
172       0.000019635594
173      -0.000037061685
174      -0.000009995420
175       0.000017243007
176      -0.000033141834
177      -0.000008743525
178      -0.000005747639
179      -0.000002618388
180       0.000004449058
181      -0.000006692825
182      -0.000009315413
183       0.000025341466
184       0.000011343029
185      -0.000019946001
186       0.000028983242
187       0.000040986359
188      -0.000009909503
189       0.000006754983
190      -0.000013273417
191      -0.000007590246
192      -0.000010969201
193      -0.000024063148
194       0.000003835066
195       0.000000317080
196      -0.000000450971
197       0.000000742513
198      -0.000005363198
199      -0.000010994953
200      -0.000007829335
201       0.000010831990
202      -0.000015580679
203      -0.000003157633
204       0.000000339644
205      -0.000000729752