[Molden Format]
[Title]
 Molden file created by orca_2mkl for BaseName=/home/nikolayandreadi_2125/_scratch/F2_cc/Pr_F2_cc

[Atoms] AU
Pr   1  59         -0.3592407175        -0.4691982121        -1.5836528612 
F    2   9         -1.8868896550         2.9782612994        -0.5876840407 
F    3   9          3.4210694860        -0.8474514642        -0.7066498597 
[GTO]
  1 0
s   6 1.0 
   961538.7552820001      1791.2119698187
   427350.5579030000      -464.6976799751
   189933.5812900000      1059.7453352467
    84414.9250180000       265.3867821965
    37517.7444520000       670.9029254951
    16674.5530900000       532.5812088880
s   1 1.0 
     7410.9124840000       569.2641778037
s   1 1.0 
     3293.7388820000       309.8681698966
s   1 1.0 
     1463.8839480000       168.6708675443
s   1 1.0 
      650.6150880000        91.8127911014
s   1 1.0 
      289.1622610000        49.9765533033
s   1 1.0 
      128.5165610000        27.2037900206
s   1 1.0 
       57.1184710000        14.8078675854
s   1 1.0 
       25.3859870000         8.0603821431
s   1 1.0 
       11.2826610000         4.3875163396
s   1 1.0 
        5.0145160000         2.3882613934
s   1 1.0 
        2.2286740000         1.3000049386
s   1 1.0 
        0.9905220000         0.7076331774
s   1 1.0 
        0.4402320000         0.3851867133
s   1 1.0 
        0.1956590000         0.2096693575
s   1 1.0 
        0.0869590000         0.1141289955
s   1 1.0 
        0.0386490000         0.0621246262
s   1 1.0 
        0.0171770000         0.0338158711
p   5 1.0 
    12926.8771060000      2243.4411625356
     5170.7508420000       970.3267113047
     2068.3003370000      1541.0095733413
      827.3201350000      1562.6929899323
      330.9280540000      1504.3140347474
p   1 1.0 
      132.3712220000       640.0030748661
p   1 1.0 
       52.9484890000       203.5902856660
p   1 1.0 
       21.1793950000        64.7637556472
p   1 1.0 
        8.4717580000        20.6018876605
p   1 1.0 
        3.3887030000         6.5536308020
p   1 1.0 
        1.3554810000         2.0847639131
p   1 1.0 
        0.5421930000         0.6631816039
p   1 1.0 
        0.2168770000         0.2109633238
p   1 1.0 
        0.0867510000         0.0671093759
p   1 1.0 
        0.0347000000         0.0213477413
p   1 1.0 
        0.0138800000         0.0067908935
d   4 1.0 
      877.6091640000      3337.5212855414
      319.1306050000      3244.8563107122
      116.0474930000      3005.5140400133
       42.1990880000      1583.5704970499
d   1 1.0 
       15.3451230000       339.1706298333
d   1 1.0 
        5.5800450000        57.7545309127
d   1 1.0 
        2.0291070000         9.8345330570
d   1 1.0 
        0.7378570000         1.6746399082
d   1 1.0 
        0.2683120000         0.2851610810
d   1 1.0 
        0.0975680000         0.0485576922
d   1 1.0 
        0.0354790000         0.0082683715
d   1 1.0 
        0.0129020000         0.0014080559
f   4 1.0 
       20.9298010000       586.8186602000
        6.9766000000       151.0188164213
        2.3255330000        19.5194371871
        0.7751780000         1.2419682566
f   1 1.0 
        0.2583930000         0.2714136926
f   1 1.0 
        0.0861310000         0.0229144232

  2 0
s   6 1.0 
    35479.1004410000         1.9229128581
     5318.4728983000         2.2734773358
     1210.4810975000         3.4747482552
      342.8551814000         5.2879612972
      112.0194318100         7.1666332516
       40.7147402500         7.7556346254
s   1 1.0 
       16.0396781100         5.7122450312
s   1 1.0 
        6.5038186700         2.9025947842
s   1 1.0 
        1.5440477500         0.9872011154
s   1 1.0 
        0.6122345300        -0.4932856223
s   1 1.0 
        0.2402798000         0.2445952611
p   4 1.0 
       80.2339004800         4.2755032106
       18.5940107400         4.7314752302
        5.6867902700         4.0864798013
        1.9511006300         2.2989954518
p   1 1.0 
        0.6697021100         0.8635593126
p   1 1.0 
        0.2165130000         0.2105208234
d   1 1.0 
        3.1070000000        20.7284714039
d   1 1.0 
        0.8550000000         2.1672588463
f   1 1.0 
        1.9170000000        24.6547062912

  3 0
s   6 1.0 
    35479.1004410000         1.9229128581
     5318.4728983000         2.2734773358
     1210.4810975000         3.4747482552
      342.8551814000         5.2879612972
      112.0194318100         7.1666332516
       40.7147402500         7.7556346254
s   1 1.0 
       16.0396781100         5.7122450312
s   1 1.0 
        6.5038186700         2.9025947842
s   1 1.0 
        1.5440477500         0.9872011154
s   1 1.0 
        0.6122345300        -0.4932856223
s   1 1.0 
        0.2402798000         0.2445952611
p   4 1.0 
       80.2339004800         4.2755032106
       18.5940107400         4.7314752302
        5.6867902700         4.0864798013
        1.9511006300         2.2989954518
p   1 1.0 
        0.6697021100         0.8635593126
p   1 1.0 
        0.2165130000         0.2105208234
d   1 1.0 
        3.1070000000        20.7284714039
d   1 1.0 
        0.8550000000         2.1672588463
f   1 1.0 
        1.9170000000        24.6547062912

[5D]
[7F]
[9G]
[MO]
 Sym=     1a
 Ene= -1.54909615133974E+03
 Spin= Alpha
 Occup= 1.000000
  1       0.079152481796
  2       0.092431827950
  3       0.170065424636
  4       0.298778665927
  5       0.347532042484
  6       0.177932028414
  7       0.011289334517
  8       0.003100399616
  9      -0.002251773309
 10       0.001478866629
 11      -0.000998121431
 12       0.000668891566
 13      -0.000440353741
 14       0.000288128609
 15      -0.000180537949
 16       0.000097376361
 17      -0.000042120534
 18       0.000011514728
 19      -0.000000040030
 20      -0.000000053840
 21      -0.000000033007
 22       0.000000191885
 23       0.000000260624
 24       0.000000159220
 25      -0.000000118274
 26      -0.000000160684
 27      -0.000000098156
 28       0.000000214215
 29       0.000000291463
 30       0.000000177949
 31      -0.000000349976
 32      -0.000000476421
 33      -0.000000290820
 34       0.000000582883
 35       0.000000793700
 36       0.000000484447
 37      -0.000001063006
 38      -0.000001447549
 39      -0.000000883518
 40       0.000001924433
 41       0.000002620004
 42       0.000001599249
 43      -0.000002528635
 44      -0.000003441251
 45      -0.000002100805
 46       0.000000902237
 47       0.000001234634
 48       0.000000752358
 49       0.000000192105
 50       0.000000259055
 51       0.000000158625
 52      -0.000000071073
 53      -0.000000096050
 54      -0.000000058771
 55      -0.000000155083
 56       0.000000081284
 57       0.000000122685
 58       0.000000015181
 59      -0.000000039300
 60       0.000000221751
 61      -0.000000088861
 62      -0.000000139431
 63      -0.000000043481
 64       0.000000122424
 65      -0.000000375113
 66       0.000000112418
 67       0.000000186121
 68       0.000000103427
 69      -0.000000298760
 70       0.000000677891
 71      -0.000000173269
 72      -0.000000297082
 73      -0.000000210520
 74       0.000000612224
 75      -0.000001367569
 76       0.000000329751
 77       0.000000573234
 78       0.000000440456
 79      -0.000001283065
 80       0.000002350426
 81      -0.000000563711
 82      -0.000000980570
 83      -0.000000760451
 84       0.000002213009
 85      -0.000001017745
 86       0.000000216363
 87       0.000000390153
 88       0.000000347910
 89      -0.000001023856
 90      -0.000000238677
 91       0.000000057444
 92       0.000000099280
 93       0.000000077927
 94      -0.000000224653
 95       0.000000088064
 96      -0.000000020858
 97      -0.000000036226
 98      -0.000000028958
 99       0.000000083676
100      -0.000000128797
101      -0.000000056521
102      -0.000000064237
103       0.000000019795
104      -0.000000087596
105      -0.000000278316
106       0.000000088951
107       0.000001035927
108       0.000000452120
109       0.000000513323
110      -0.000000155470
111       0.000000690156
112       0.000002216176
113      -0.000000708115
114      -0.000000762970
115      -0.000000337283
116      -0.000000383523
117       0.000000120810
118      -0.000000532230
119      -0.000001669414
120       0.000000533830
121       0.000000044828
122      -0.000000216318
123       0.000000439334
124      -0.000001642478
125      -0.000003111928
126      -0.000001724310
127      -0.000000093443
128       0.000000293746
129       0.000000094889
130       0.000000799116
131      -0.000002050537
132      -0.000000622300
133       0.000000627308
134      -0.000001063137
135      -0.000000264494
136       0.000000012662
137       0.000000007232
138      -0.000000030802
139       0.000000047638
140       0.000000007614
141      -0.000000367266
142      -0.000000163605
143       0.000000407015
144      -0.000000579794
145      -0.000000518046
146      -0.000000099153
147       0.000000056431
148      -0.000000111766
149      -0.000000085348
150      -0.000000095853
151      -0.000000198879
152       0.000000043418
153       0.000000044571
154      -0.000000215165
155       0.000000437278
156      -0.000001638804
157      -0.000003109581
158      -0.000001717542
159       0.000000309491
160       0.000000002558
161       0.000000085540
162      -0.000002214141
163       0.000000121526
164      -0.000000554658
165      -0.000001218534
166       0.000000264647
167      -0.000000224192
168       0.000000013491
169      -0.000000029457
170      -0.000000001854
171      -0.000000042423
172      -0.000000022186
173      -0.000000387818
174       0.000000392653
175      -0.000000026868
176       0.000000783338
177      -0.000000075245
178      -0.000000089297
179      -0.000000137789
180       0.000000020274
181       0.000000112171
182      -0.000000022382
183      -0.000000193176
184       0.000000081761
 Sym=     1a
 Ene= -2.53709145036949E+02
 Spin= Alpha
 Occup= 1.000000
  1       0.028911614374
  2       0.037022706710
  3       0.069306163168
  4       0.143604300359
  5       0.207159643056
  6       0.099439928051
  7      -0.447231487410
  8      -0.618112651519
  9      -0.112975463171
 10      -0.003577368309
 11       0.002963678838
 12      -0.002117712890
 13       0.001562427049
 14      -0.001071484221
 15       0.000677539596
 16      -0.000367033578
 17       0.000159331017
 18      -0.000043653169
 19      -0.000011204836
 20      -0.000015264163
 21      -0.000009315498
 22      -0.000016236783
 23      -0.000022117877
 24      -0.000013498446
 25      -0.000013627642
 26      -0.000018568140
 27      -0.000011331083
 28      -0.000000930226
 29      -0.000001278561
 30      -0.000000777974
 31       0.000000076394
 32       0.000000106308
 33       0.000000064404
 34      -0.000001904700
 35      -0.000002595139
 36      -0.000001583666
 37       0.000003860494
 38       0.000005257761
 39       0.000003208940
 40      -0.000007249335
 41      -0.000009869311
 42      -0.000006024258
 43       0.000009875411
 44       0.000013437815
 45       0.000008203831
 46      -0.000003294123
 47      -0.000004508454
 48      -0.000002747203
 49      -0.000000809425
 50      -0.000001092475
 51      -0.000000668753
 52       0.000000290838
 53       0.000000393229
 54       0.000000240574
 55       0.000020318040
 56      -0.000011925874
 57      -0.000017744717
 58      -0.000000993188
 59       0.000002063322
 60      -0.000000141092
 61       0.000000056377
 62       0.000000089460
 63       0.000000025727
 64      -0.000000077724
 65      -0.000000271221
 66       0.000000228760
 67       0.000000328174
 68      -0.000000041286
 69       0.000000140676
 70      -0.000002052329
 71       0.000000473380
 72       0.000000832527
 73       0.000000676833
 74      -0.000001977192
 75       0.000005178646
 76      -0.000001250614
 77      -0.000002173029
 78      -0.000001666737
 79       0.000004854119
 80      -0.000009219661
 81       0.000002211700
 82       0.000003846490
 83       0.000002983325
 84      -0.000008679779
 85       0.000003713347
 86      -0.000000786196
 87      -0.000001419415
 88      -0.000001271697
 89       0.000003743353
 90       0.000000982416
 91      -0.000000236781
 92      -0.000000409271
 93      -0.000000320199
 94       0.000000923737
 95      -0.000000357126
 96       0.000000084992
 97       0.000000147483
 98       0.000000117048
 99      -0.000000338320
100       0.000000682847
101       0.000000299800
102       0.000000340587
103      -0.000000105686
104       0.000000464407
105       0.000001475994
106      -0.000000471587
107      -0.000004254609
108      -0.000001854571
109      -0.000002105441
110       0.000000635275
111      -0.000002821973
112      -0.000009082511
113       0.000002901816
114       0.000002970555
115       0.000001310354
116       0.000001489882
117      -0.000000466274
118       0.000002057244
119       0.000006476389
120      -0.000002070749
121      -0.000000152092
122       0.000000779642
123      -0.000001695292
124       0.000006378343
125       0.000011683731
126       0.000005903648
127       0.000000405519
128      -0.000001236567
129      -0.000000396131
130      -0.000003095164
131       0.000007918298
132       0.000002400524
133      -0.000002502770
134       0.000004381017
135       0.000001112389
136      -0.000000088788
137      -0.000000047728
138       0.000000159778
139      -0.000000244264
140      -0.000000091118
141       0.000001500933
142       0.000000675721
143      -0.000001660304
144       0.000002373506
145       0.000002129647
146       0.000000338612
147      -0.000000197302
148       0.000000383655
149       0.000000289153
150       0.000000322902
151       0.000000676326
152      -0.000000136344
153      -0.000000151356
154       0.000000775870
155      -0.000001688210
156       0.000006365455
157       0.000011675952
158       0.000005877469
159      -0.000001307346
160       0.000000000796
161      -0.000000356582
162       0.000008553737
163      -0.000000478184
164       0.000002139195
165       0.000004995073
166      -0.000001012831
167       0.000000948550
168      -0.000000094457
169       0.000000153899
170       0.000000001380
171       0.000000250369
172       0.000000071388
173       0.000001585816
174      -0.000001604064
175       0.000000117566
176      -0.000003213057
177       0.000000315623
178       0.000000304675
179       0.000000473770
180      -0.000000073004
181      -0.000000378842
182       0.000000073499
183       0.000000650799
184      -0.000000287293
 Sym=     1a
 Ene= -2.27191802220325E+02
 Spin= Alpha
 Occup= 1.000000
  1       0.000002015767
  2       0.000002548584
  3       0.000004975908
  4       0.000009654568
  5       0.000015769247
  6       0.000003678754
  7      -0.000029173637
  8      -0.000045836368
  9       0.000004474620
 10      -0.000026896629
 11       0.000049205258
 12      -0.000078747301
 13       0.000129985431
 14      -0.000187680458
 15       0.000106879485
 16       0.000130443662
 17      -0.000078214732
 18       0.000017870763
 19       0.179360790134
 20       0.256032046048
 21       0.153852803371
 22       0.246726126455
 23       0.352193899377
 24       0.211637662666
 25       0.159226792546
 26       0.227291512296
 27       0.136582237933
 28       0.009337446720
 29       0.013328833633
 30       0.008009475772
 31       0.002781550671
 32       0.003970816318
 33       0.002386068165
 34      -0.001926748868
 35      -0.002751000625
 36      -0.001652993159
 37       0.001153724055
 38       0.001648080567
 39       0.000990132390
 40      -0.000713086245
 41      -0.001020098692
 42      -0.000612580919
 43       0.000438984063
 44       0.000629441893
 45       0.000377715951
 46      -0.000206096130
 47      -0.000292784154
 48      -0.000176203098
 49       0.000092089939
 50       0.000130524103
 51       0.000078607713
 52      -0.000029653985
 53      -0.000042069643
 54      -0.000025328857
 55      -0.000003112460
 56       0.000003973581
 57       0.000005658607
 58      -0.000001703296
 59       0.000004971370
 60      -0.000000285539
 61      -0.000000420799
 62      -0.000000499049
 63       0.000000434022
 64      -0.000001435779
 65       0.000003744994
 66      -0.000000881870
 67      -0.000001661880
 68      -0.000001039443
 69       0.000003474569
 70      -0.000009872464
 71       0.000002625904
 72       0.000004820288
 73       0.000002435716
 74      -0.000008399420
 75       0.000023126077
 76      -0.000006178625
 77      -0.000011327219
 78      -0.000005687390
 79       0.000019608688
 80      -0.000044537171
 81       0.000011629075
 82       0.000021445441
 83       0.000011186143
 84      -0.000038427774
 85      -0.000011483764
 86       0.000000823692
 87       0.000002808549
 88       0.000004376858
 89      -0.000015071510
 90       0.000012691911
 91      -0.000003007151
 92      -0.000005724484
 93      -0.000003402991
 94       0.000011681570
 95      -0.000003936417
 96       0.000000956532
 97       0.000001805579
 98       0.000001038657
 99      -0.000003566212
100       0.000002127574
101       0.000001163974
102       0.000001421265
103      -0.000000676310
104       0.000002942667
105       0.000006894076
106      -0.000002235603
107      -0.000023963509
108      -0.000009706890
109      -0.000012085780
110       0.000002690165
111      -0.000015417617
112      -0.000049970133
113       0.000015953141
114       0.000008158071
115       0.000003045408
116       0.000003786576
117      -0.000000611186
118       0.000003775649
119       0.000014791954
120      -0.000004588354
121      -0.000000161361
122       0.000000955234
123      -0.000002382772
124       0.000011425873
125       0.000007809149
126      -0.000060891863
127       0.000003241306
128      -0.000003510341
129      -0.000000554342
130      -0.000015955590
131       0.000023329421
132       0.000005207556
133      -0.000017156936
134       0.000055149156
135       0.000017919040
136      -0.000001151186
137      -0.000000632791
138       0.000000109351
139      -0.000000176912
140      -0.000002668473
141       0.000008044000
142       0.000003873735
143      -0.000004194924
144       0.000005821910
145       0.000015292732
146       0.000001165920
147      -0.000000076834
148       0.000000696887
149       0.000001509122
150       0.000000613779
151       0.000001029787
152      -0.000001692727
153      -0.000000161655
154       0.000000950008
155      -0.000002342742
156       0.000011031871
157       0.000007877449
158      -0.000057243616
159      -0.000004152196
160       0.000001990969
161      -0.000000317918
162       0.000025926028
163      -0.000007864634
164       0.000003855624
165       0.000055240123
166       0.000001412468
167       0.000015658431
168      -0.000001141248
169       0.000000099587
170      -0.000000502325
171       0.000001653404
172      -0.000002057104
173       0.000007987131
174      -0.000003793951
175       0.000002072547
176      -0.000013174694
177       0.000008861406
178       0.000001086525
179       0.000000762562
180       0.000000167198
181      -0.000001441467
182      -0.000000382999
183       0.000001777398
184       0.000000832785
 Sym=     1a
 Ene= -2.27191243710220E+02
 Spin= Alpha
 Occup= 1.000000
  1       0.000000039778
  2       0.000000050274
  3       0.000000098237
  4       0.000000190311
  5       0.000000311557
  6       0.000000071329
  7      -0.000000571788
  8      -0.000000900456
  9       0.000000076109
 10      -0.000000537906
 11       0.000000985979
 12      -0.000001572620
 13       0.000002598327
 14      -0.000003779741
 15       0.000002146668
 16       0.000002779651
 17      -0.000001632540
 18       0.000000374752
 19       0.286218291895
 20      -0.198654525864
 21      -0.003083573481
 22       0.393715444383
 23      -0.273264632956
 24      -0.004241664639
 25       0.254090493474
 26      -0.176355779914
 27      -0.002737479619
 28       0.014896861904
 29      -0.010339360506
 30      -0.000160465994
 31       0.004445051572
 32      -0.003085306314
 33      -0.000047957044
 34      -0.003089823593
 35       0.002144925936
 36       0.000033465347
 37       0.001869635056
 38      -0.001298371115
 39      -0.000020475987
 40      -0.001191509416
 41       0.000828332963
 42       0.000013461133
 43       0.000770567388
 44      -0.000536555143
 45      -0.000009106666
 46      -0.000292599592
 47       0.000202211312
 48       0.000002753658
 49       0.000123592017
 50      -0.000085210545
 51      -0.000001067254
 52      -0.000040765204
 53       0.000028134285
 54       0.000000365214
 55      -0.000000188133
 56       0.000003341492
 57      -0.000002420999
 58       0.000007951702
 59       0.000002684246
 60      -0.000000025179
 61       0.000000539131
 62      -0.000000435349
 63       0.000001347751
 64       0.000000409212
 65       0.000000188677
 66      -0.000002881443
 67       0.000002195224
 68      -0.000007036160
 69      -0.000002200146
 70      -0.000000541624
 71       0.000008726497
 72      -0.000006653005
 73       0.000021296380
 74       0.000006708745
 75       0.000001273858
 76      -0.000020475453
 77       0.000015609414
 78      -0.000049968659
 79      -0.000015738956
 80      -0.000002471132
 81       0.000039467012
 82      -0.000030090146
 83       0.000096329879
 84       0.000030311750
 85      -0.000000793547
 86       0.000013579323
 87      -0.000010486022
 88       0.000033307498
 89       0.000010426842
 90       0.000000722178
 91      -0.000011609481
 92       0.000008867292
 93      -0.000028357163
 94      -0.000008912964
 95      -0.000000223228
 96       0.000003578128
 97      -0.000002731521
 98       0.000008738135
 99       0.000002747010
100      -0.000000099757
101       0.000002622234
102      -0.000001699379
103      -0.000003961064
104      -0.000001329580
105       0.000000590617
106       0.000001106312
107       0.000001084060
108      -0.000029477092
109       0.000019567092
110       0.000034296798
111       0.000012172281
112      -0.000001841146
113       0.000000398541
114      -0.000000309293
115       0.000008748947
116      -0.000005963605
117      -0.000005931800
118      -0.000002352622
119      -0.000001257104
120      -0.000005517187
121      -0.000000079877
122       0.000000242617
123       0.000000289570
124      -0.000008411597
125       0.000003028407
126       0.000094291137
127      -0.000001057584
128       0.000004823436
129       0.000001689792
130       0.000010260530
131      -0.000032268394
132      -0.000010429548
133       0.000038212682
134      -0.000066773961
135      -0.000016931984
136       0.000000738936
137       0.000000265185
138      -0.000001132190
139       0.000001564003
140       0.000000717132
141      -0.000008320174
142      -0.000003393350
143       0.000009780144
144      -0.000013594276
145      -0.000010871022
146      -0.000001072774
147       0.000000748584
148      -0.000001479967
149      -0.000000772565
150      -0.000001542048
151      -0.000003020314
152       0.000000362937
153       0.000000077815
154      -0.000000227011
155      -0.000000341859
156       0.000008783099
157      -0.000002784640
158      -0.000096868732
159      -0.000005103237
160      -0.000000412436
161      -0.000001560724
162       0.000035200111
163      -0.000000042480
164       0.000009587579
165       0.000078254965
166      -0.000015422890
167       0.000015047147
168      -0.000000827194
169       0.000001066518
170       0.000000070091
171       0.000001759705
172       0.000000267252
173       0.000009129992
174      -0.000009507428
175       0.000000240445
176      -0.000018172358
177       0.000001088646
178       0.000000989568
179       0.000001848613
180      -0.000000274828
181      -0.000001409702
182       0.000000705551
183       0.000002817262
184      -0.000001456838
 Sym=     1a
 Ene= -2.27185432744185E+02
 Spin= Alpha
 Occup= 1.000000
  1       0.000000000268
  2       0.000000000339
  3       0.000000000662
  4       0.000000001285
  5       0.000000002097
  6       0.000000000494
  7      -0.000000003813
  8      -0.000000006103
  9       0.000000000365
 10      -0.000000003452
 11       0.000000006379
 12      -0.000000010126
 13       0.000000016711
 14      -0.000000024143
 15       0.000000013773
 16       0.000000016653
 17      -0.000000010023
 18       0.000000002290
 19      -0.085457208214
 20      -0.127977621436
 21       0.312597780177
 22      -0.117555048913
 23      -0.176046191007
 24       0.430009928677
 25      -0.075858418951
 26      -0.113602820008
 27       0.277485931866
 28      -0.004444906524
 29      -0.006656537512
 30       0.016259233532
 31      -0.001325215347
 32      -0.001984580285
 33       0.004847544107
 34       0.000914109522
 35       0.001368904746
 36      -0.003343714058
 37      -0.000542250349
 38      -0.000811992575
 39       0.001983430117
 40       0.000325132235
 41       0.000486788949
 42      -0.001189141830
 43      -0.000189526424
 44      -0.000283673067
 45       0.000693047693
 46       0.000104864904
 47       0.000157107868
 48      -0.000383690070
 49      -0.000049836117
 50      -0.000074681820
 51       0.000182370903
 52       0.000015831285
 53       0.000023722240
 54      -0.000057930646
 55       0.000005725199
 56       0.000003070880
 57       0.000004064751
 58       0.000001131491
 59      -0.000003108666
 60      -0.000000792937
 61      -0.000000429706
 62      -0.000000560157
 63      -0.000000154696
 64       0.000000431091
 65      -0.000000421645
 66      -0.000000226615
 67      -0.000000299877
 68      -0.000000079517
 69       0.000000230971
 70       0.000000933377
 71       0.000000497741
 72       0.000000666774
 73       0.000000174833
 74      -0.000000511931
 75      -0.000001920624
 76      -0.000001025252
 77      -0.000001372258
 78      -0.000000354902
 79       0.000001055493
 80       0.000002865898
 81       0.000001526406
 82       0.000002052410
 83       0.000000518819
 84      -0.000001580422
 85      -0.000002495472
 86      -0.000001346800
 87      -0.000001763105
 88      -0.000000510063
 89       0.000001347038
 90      -0.000000293593
 91      -0.000000151900
 92      -0.000000215223
 93      -0.000000044859
 94       0.000000166143
 95       0.000000133691
 96       0.000000070010
 97       0.000000096994
 98       0.000000022388
 99      -0.000000074659
100      -0.000000250570
101       0.000000652966
102       0.000000931910
103       0.000000003380
104       0.000000063746
105      -0.000000228611
106       0.000000068272
107      -0.000002345516
108       0.000000893957
109       0.000001508261
110       0.000000876856
111      -0.000002425267
112       0.000001265443
113      -0.000000332675
114       0.000002723673
115      -0.000001164705
116      -0.000001956768
117      -0.000001010318
118       0.000002732421
119      -0.000001383857
120       0.000000367172
121       0.000000000019
122       0.000000000006
123      -0.000000000480
124       0.000000005947
125      -0.000000000346
126      -0.000000056608
127      -0.000000657290
128      -0.000000991237
129       0.000002410195
130       0.000002049474
131       0.000003107984
132      -0.000007528155
133      -0.000001995256
134      -0.000002920609
135       0.000007239356
136      -0.000001305035
137       0.000001345560
138      -0.000002287653
139      -0.000001376556
140       0.000000240961
141       0.000004351284
142      -0.000004491757
143       0.000007624659
144       0.000004596790
145      -0.000000795056
146       0.000000896370
147       0.000000447227
148      -0.000001400683
149       0.000000686388
150       0.000001260464
151      -0.000000223934
152       0.000000950528
153      -0.000000000063
154       0.000000000250
155      -0.000000000149
156      -0.000000003016
157       0.000000002412
158       0.000000041579
159      -0.000000656526
160      -0.000000988221
161       0.000002413070
162       0.000002044905
163       0.000003090755
164      -0.000007548012
165      -0.000002005420
166      -0.000002953897
167       0.000007220896
168      -0.000001149508
169      -0.000002663696
170       0.000000546947
171       0.000000888557
172       0.000001090288
173       0.000003828717
174       0.000008892974
175      -0.000001831220
176      -0.000002962922
177      -0.000003637528
178       0.000000992871
179      -0.000001319489
180      -0.000000050479
181      -0.000001376252
182       0.000000596753
183      -0.000000693902
184      -0.000000708324
 Sym=     1a
 Ene= -5.68003363993241E+01
 Spin= Alpha
 Occup= 1.000000
  1       0.013281051219
  2       0.017203240992
  3       0.032546060709
  4       0.068437310976
  5       0.104523541123
  6       0.048128624738
  7      -0.326432564574
  8      -0.693441886246
  9       0.315555031549
 10       0.950394660510
 11       0.090189045059
 12       0.027668780207
 13      -0.018968570926
 14       0.013118355940
 15      -0.008536477679
 16       0.004650242658
 17      -0.002027791151
 18       0.000557090004
 19      -0.000045753348
 20      -0.000062413602
 21      -0.000038072946
 22      -0.000070394448
 23      -0.000096019231
 24      -0.000058574380
 25      -0.000017145447
 26      -0.000023404284
 27      -0.000014273557
 28       0.000185897243
 29       0.000253575260
 30       0.000154686272
 31       0.000107953108
 32       0.000147318135
 33       0.000089854105
 34       0.000008957574
 35       0.000012089330
 36       0.000007400357
 37      -0.000038487978
 38      -0.000052372357
 39      -0.000031973320
 40       0.000090001893
 41       0.000122487861
 42       0.000074775392
 43      -0.000123410766
 44      -0.000167891532
 45      -0.000102505807
 46       0.000040539347
 47       0.000055484692
 48       0.000033809075
 49       0.000010711495
 50       0.000014466605
 51       0.000008853768
 52      -0.000003842043
 53      -0.000005197648
 54      -0.000003179273