[Molden Format]
[Title]
 Molden file created by orca_2mkl for BaseName=/home/nikolayandreadi_2125/_scratch/F2_cc/Sm_F2_cc

[Atoms] AU
Sm   1  62         -0.3573887859        -0.4616525356        -1.5800548226 
F    2   9         -1.9936024898         3.0494718493        -0.5876292386 
F    3   9          3.5259284994        -0.9262076906        -0.7103027003 
[GTO]
  1 0
s   6 1.0 
  1062932.5401760000      2015.4033414015
   472414.4623000000      -530.2484535570
   209961.9832450000      1184.0193668322
    93316.4369980000       281.7673601451
    41473.9719990000       732.4402389394
    18432.8764440000       565.1951099566
s   1 1.0 
     8192.3895310000       613.7168364017
s   1 1.0 
     3641.0620140000       334.0651324018
s   1 1.0 
     1618.2497840000       181.8420256088
s   1 1.0 
      719.2221260000        98.9822614294
s   1 1.0 
      319.6542780000        53.8791186583
s   1 1.0 
      142.0685680000        29.3280774453
s   1 1.0 
       63.1415860000        15.9641833483
s   1 1.0 
       28.0629270000         8.6898007217
s   1 1.0 
       12.4724120000         4.7301283855
s   1 1.0 
        5.5432940000         2.5747556920
s   1 1.0 
        2.4636860000         1.4015193847
s   1 1.0 
        1.0949720000         0.7628907560
s   1 1.0 
        0.4866540000         0.4152649871
s   1 1.0 
        0.2162910000         0.2260418893
s   1 1.0 
        0.0961290000         0.1230412999
s   1 1.0 
        0.0427240000         0.0669752004
s   1 1.0 
        0.0189880000         0.0364560415
p   5 1.0 
    14404.1721250000      2744.8949604333
     5761.6688500000      1139.8678591343
     2304.6675400000      1806.9940214775
      921.8670160000      1796.2052381751
      368.7468060000      1716.9611649775
p   1 1.0 
      147.4987230000       732.6986870548
p   1 1.0 
       58.9994890000       233.0775265407
p   1 1.0 
       23.5997960000        74.1438953273
p   1 1.0 
        9.4399180000        23.5857866190
p   1 1.0 
        3.7759670000         7.5028337885
p   1 1.0 
        1.5103870000         2.3867140330
p   1 1.0 
        0.6041550000         0.7592338375
p   1 1.0 
        0.2416620000         0.2415185789
p   1 1.0 
        0.0966650000         0.0768292612
p   1 1.0 
        0.0386660000         0.0244400250
p   1 1.0 
        0.0154660000         0.0077743233
d   4 1.0 
     1004.1583960000      4186.2867605126
      365.1485080000      4040.4728439300
      132.7812750000      3762.5495192093
       48.2841000000      2011.2515485290
d   1 1.0 
       17.5578550000       429.3338542770
d   1 1.0 
        6.3846740000        73.1076554091
d   1 1.0 
        2.3217000000        12.4488937692
d   1 1.0 
        0.8442540000         2.1198154627
d   1 1.0 
        0.3070020000         0.3609667439
d   1 1.0 
        0.1116370000         0.0614659161
d   1 1.0 
        0.0405950000         0.0104663930
d   1 1.0 
        0.0147620000         0.0017822728
f   4 1.0 
       27.1800850000       996.9794071247
        9.0600280000       272.9712358672
        3.0200090000        35.7157423366
        1.0066700000         2.1818001987
f   1 1.0 
        0.3355570000         0.4886233996
f   1 1.0 
        0.1118520000         0.0412523340

  2 0
s   6 1.0 
    35479.1004410000         1.9229128581
     5318.4728983000         2.2734773358
     1210.4810975000         3.4747482552
      342.8551814000         5.2879612972
      112.0194318100         7.1666332516
       40.7147402500         7.7556346254
s   1 1.0 
       16.0396781100         5.7122450312
s   1 1.0 
        6.5038186700         2.9025947842
s   1 1.0 
        1.5440477500         0.9872011154
s   1 1.0 
        0.6122345300        -0.4932856223
s   1 1.0 
        0.2402798000         0.2445952611
p   4 1.0 
       80.2339004800         4.2755032106
       18.5940107400         4.7314752302
        5.6867902700         4.0864798013
        1.9511006300         2.2989954518
p   1 1.0 
        0.6697021100         0.8635593126
p   1 1.0 
        0.2165130000         0.2105208234
d   1 1.0 
        3.1070000000        20.7284714039
d   1 1.0 
        0.8550000000         2.1672588463
f   1 1.0 
        1.9170000000        24.6547062912

  3 0
s   6 1.0 
    35479.1004410000         1.9229128581
     5318.4728983000         2.2734773358
     1210.4810975000         3.4747482552
      342.8551814000         5.2879612972
      112.0194318100         7.1666332516
       40.7147402500         7.7556346254
s   1 1.0 
       16.0396781100         5.7122450312
s   1 1.0 
        6.5038186700         2.9025947842
s   1 1.0 
        1.5440477500         0.9872011154
s   1 1.0 
        0.6122345300        -0.4932856223
s   1 1.0 
        0.2402798000         0.2445952611
p   4 1.0 
       80.2339004800         4.2755032106
       18.5940107400         4.7314752302
        5.6867902700         4.0864798013
        1.9511006300         2.2989954518
p   1 1.0 
        0.6697021100         0.8635593126
p   1 1.0 
        0.2165130000         0.2105208234
d   1 1.0 
        3.1070000000        20.7284714039
d   1 1.0 
        0.8550000000         2.1672588463
f   1 1.0 
        1.9170000000        24.6547062912

[5D]
[7F]
[9G]
[MO]
 Sym=     1a
 Ene= -1.72730412069816E+03
 Spin= Alpha
 Occup= 1.000000
  1      -0.083754475586
  2      -0.095681356166
  3      -0.172394525914
  4      -0.299421107466
  5      -0.343688250021
  6      -0.174633815259
  7      -0.010621927175
  8      -0.003174004683
  9       0.002308579496
 10      -0.001520342103
 11       0.001024226259
 12      -0.000686070413
 13       0.000452195023
 14      -0.000296350095
 15       0.000189904738
 16      -0.000110541019
 17       0.000045954157
 18      -0.000012291665
 19       0.000000436171
 20       0.000000593606
 21       0.000000362375
 22      -0.000000300908
 23      -0.000000412629
 24      -0.000000251276
 25       0.000000257811
 26       0.000000351895
 27       0.000000214615
 28      -0.000000278838
 29      -0.000000380017
 30      -0.000000231883
 31       0.000000381770
 32       0.000000519569
 33       0.000000317182
 34      -0.000000588948
 35      -0.000000801892
 36      -0.000000489460
 37       0.000001009030
 38       0.000001377130
 39       0.000000839919
 40      -0.000001663365
 41      -0.000002280278
 42      -0.000001388732
 43       0.000002231259
 44       0.000003055317
 45       0.000001861438
 46      -0.000002911384
 47      -0.000003947599
 48      -0.000002412838
 49       0.000000489077
 50       0.000000656851
 51       0.000000402746
 52      -0.000000098048
 53      -0.000000131977
 54      -0.000000080861
 55       0.000000200518
 56      -0.000000079755
 57      -0.000000127236
 58      -0.000000037146
 59       0.000000110828
 60      -0.000000253675
 61       0.000000081016
 62       0.000000133788
 63       0.000000064125
 64      -0.000000189039
 65       0.000000375225
 66      -0.000000097164
 67      -0.000000167585
 68      -0.000000113338
 69       0.000000334779
 70      -0.000000654231
 71       0.000000150587
 72       0.000000266903
 73       0.000000213158
 74      -0.000000629616
 75       0.000001214594
 76      -0.000000266846
 77      -0.000000480076
 78      -0.000000403700
 79       0.000001198677
 80      -0.000001818637
 81       0.000000385553
 82       0.000000701946
 83       0.000000613090
 84      -0.000001827542
 85       0.000002872895
 86      -0.000000571839
 87      -0.000001042448
 88      -0.000001024432
 89       0.000002990117
 90      -0.000000258937
 91       0.000000070202
 92       0.000000115775
 93       0.000000081877
 94      -0.000000226359
 95       0.000000041869
 96      -0.000000013215
 97      -0.000000020992
 98      -0.000000012054
 99       0.000000032224
100       0.000000118879
101       0.000000052153
102       0.000000059978
103      -0.000000018260
104       0.000000083020
105       0.000000259887
106      -0.000000083245
107      -0.000000614327
108      -0.000000269050
109      -0.000000312147
110       0.000000093975
111      -0.000000435231
112      -0.000001351429
113       0.000000433232
114       0.000001090336
115       0.000000498443
116       0.000000565490
117      -0.000000195806
118       0.000000841512
119       0.000002512426
120      -0.000000805367
121      -0.000000123705
122       0.000000568796
123      -0.000001067409
124       0.000002906141
125       0.000004961954
126       0.000006925737
127       0.000000250469
128      -0.000000591857
129      -0.000000174208
130      -0.000001013591
131       0.000002371588
132       0.000000695338
133       0.000000486767
134      -0.000001756873
135      -0.000000587207
136      -0.000000158379
137      -0.000000056295
138       0.000000143372
139      -0.000000183227
140      -0.000000226926
141       0.000000718260
142       0.000000277994
143      -0.000000653403
144       0.000000863784
145       0.000001059367
146      -0.000000051095
147       0.000000019325
148      -0.000000050614
149      -0.000000043552
150      -0.000000047673
151      -0.000000097571
152       0.000000035830
153      -0.000000124686
154       0.000000572969
155      -0.000001074024
156       0.000002908310
157       0.000004945239
158       0.000006926923
159      -0.000000650191
160       0.000000055002
161      -0.000000154961
162       0.000002578594
163      -0.000000226304
164       0.000000611210
165      -0.000001862394
166      -0.000000074333
167      -0.000000538908
168      -0.000000169568
169       0.000000138467
170      -0.000000006356
171       0.000000293359
172      -0.000000076637
173       0.000000758944
174      -0.000000626948
175       0.000000049039
176      -0.000001353416
177       0.000000348037
178      -0.000000049546
179      -0.000000065182
180       0.000000003989
181       0.000000060080
182      -0.000000012534
183      -0.000000108868
184       0.000000030668
 Sym=     1a
 Ene= -2.86692270038563E+02
 Spin= Alpha
 Occup= 1.000000
  1      -0.030996570449
  2      -0.038939698333
  3      -0.071246710921
  4      -0.145987390182
  5      -0.206190542053
  6      -0.090533236702
  7       0.460029536630
  8       0.609631950247
  9       0.104002537393
 10       0.003900271193
 11      -0.003356362422
 12       0.002394320961
 13      -0.001734959211
 14       0.001183104328
 15      -0.000764767387
 16       0.000448072843
 17      -0.000186843765
 18       0.000050057768
 19      -0.000008077682
 20      -0.000010614148
 21      -0.000006555071
 22      -0.000011289821
 23      -0.000014858931
 24      -0.000009171609
 25      -0.000010264723
 26      -0.000013532048
 27      -0.000008348013
 28      -0.000003378265
 29      -0.000004480467
 30      -0.000002758479
 31      -0.000000528995
 32      -0.000000723001
 33      -0.000000440772
 34       0.000001857932
 35       0.000002538034
 36       0.000001547513
 37      -0.000003755395
 38      -0.000005130140
 39      -0.000003127953
 40       0.000006543255
 41       0.000008979527
 42       0.000005466812
 43      -0.000009106310
 44      -0.000012481605
 45      -0.000007601946
 46       0.000011747749
 47       0.000015937439
 48       0.000009739525
 49      -0.000001957060
 50      -0.000002629510
 51      -0.000001612053
 52       0.000000390376
 53       0.000000525774
 54       0.000000322075
 55      -0.000027377262
 56       0.000011124090
 57       0.000017682073
 58       0.000004886023
 59      -0.000014562956
 60       0.000000869942
 61      -0.000000294392
 62      -0.000000491512
 63      -0.000000190154
 64       0.000000599889
 65      -0.000000547854
 66       0.000000051702
 67       0.000000123699
 68       0.000000239671
 69      -0.000000708478
 70       0.000002440080
 71      -0.000000558751
 72      -0.000000995399
 73      -0.000000791528
 74       0.000002352397
 75      -0.000004955731
 76       0.000001089220
 77       0.000001961297
 78       0.000001643851
 79      -0.000004888255
 80       0.000007486869
 81      -0.000001584517
 82      -0.000002888764
 83      -0.000002522086
 84       0.000007528131
 85      -0.000011652351
 86       0.000002316733
 87       0.000004226845
 88       0.000004153790
 89      -0.000012132524
 90       0.000001043263
 91      -0.000000283322
 92      -0.000000467321
 93      -0.000000329153
 94       0.000000910673
 95      -0.000000168540
 96       0.000000053373
 97       0.000000084805
 98       0.000000048270
 99      -0.000000129230
100      -0.000000510213
101      -0.000000208829
102      -0.000000244800
103       0.000000063721
104      -0.000000290261
105      -0.000001016011
106       0.000000315465
107       0.000002596191
108       0.000001132643
109       0.000001315696
110      -0.000000392695
111       0.000001820811
112       0.000005683156
113      -0.000001819266
114      -0.000004457569
115      -0.000002035363
116      -0.000002310820
117       0.000000798103
118      -0.000003432886
119      -0.000010259833
120       0.000003287601
121       0.000000412054
122      -0.000002083656
123       0.000004145041
124      -0.000011676522
125      -0.000019847277
126      -0.000027888381
127      -0.000001043398
128       0.000002465732
129       0.000000725787
130       0.000004106132
131      -0.000009609483
132      -0.000002817686
133      -0.000001921088
134       0.000007031300
135       0.000002357482
136       0.000000668682
137       0.000000240573
138      -0.000000606330
139       0.000000778699
140       0.000000961498
141      -0.000002976975
142      -0.000001156010
143       0.000002709466
144      -0.000003586811
145      -0.000004395258
146       0.000000225369
147      -0.000000088034
148       0.000000225887
149       0.000000192462
150       0.000000212905
151       0.000000434536
152      -0.000000155591
153       0.000000414869
154      -0.000002097155
155       0.000004167087
156      -0.000011677499
157      -0.000019770876
158      -0.000027887567
159       0.000002706449
160      -0.000000228942
161       0.000000645034
162      -0.000010443807
163       0.000000916123
164      -0.000002475706
165       0.000007446223
166       0.000000322097
167       0.000002164868
168       0.000000714888
169      -0.000000585156
170       0.000000029311
171      -0.000001242343
172       0.000000322979
173      -0.000003143849
174       0.000002598723
175      -0.000000206499
176       0.000005613575
177      -0.000001441844
178       0.000000216591
179       0.000000288642
180      -0.000000019153
181      -0.000000264466
182       0.000000056411
183       0.000000478602
184      -0.000000138526
 Sym=     1a
 Ene= -2.56046827373971E+02
 Spin= Alpha
 Occup= 1.000000
  1      -0.000000008232
  2      -0.000000011060
  3      -0.000000017070
  4      -0.000000046736
  5      -0.000000038628
  6      -0.000000066864
  7       0.000000246793
  8       0.000000077711
  9       0.000000098085
 10      -0.000000460253
 11       0.000000858694
 12      -0.000001404723
 13       0.000002382930
 14      -0.000003473142
 15       0.000002225982
 16       0.000001451595
 17      -0.000000927333
 18       0.000000194510
 19      -0.281971477150
 20       0.210486139206
 21       0.009297606845
 22      -0.384145266295
 23       0.286756884266
 24       0.012666653656
 25      -0.245643221945
 26       0.183367818521
 27       0.008099736302
 28      -0.013420491103
 29       0.010018230608
 30       0.000442562241
 31      -0.004421943405
 32       0.003300693302
 33       0.000145725023
 34       0.003054822686
 35      -0.002279998093
 36      -0.000100577712
 37      -0.001851168166
 38       0.001381210861
 39       0.000060772634
 40       0.001164290302
 41      -0.000868093223
 42      -0.000037968796
 43      -0.000727435940
 44       0.000541951765
 45       0.000023548248
 46       0.000345631663
 47      -0.000257693276
 48      -0.000011268061
 49      -0.000145124574
 50       0.000108478991
 51       0.000004845548
 52       0.000046887442
 53      -0.000035045368
 54      -0.000001564495
 55      -0.000000111728
 56       0.000002111578
 57      -0.000001766090
 58       0.000005379852
 59       0.000001538342
 60      -0.000000006975
 61      -0.000000169650
 62       0.000000092691
 63      -0.000000345947
 64      -0.000000185710
 65      -0.000000062043
 66       0.000003579421
 67      -0.000002867364
 68       0.000008840285
 69       0.000002905274
 70       0.000000128335
 71      -0.000007733030
 72       0.000006135844
 73      -0.000019004397
 74      -0.000006329488
 75      -0.000000253266
 76       0.000016606161
 77      -0.000013202725
 78       0.000040836329
 79       0.000013608122
 80       0.000000317558
 81      -0.000025847207
 82       0.000020589632
 83      -0.000063570876
 84      -0.000021273531
 85      -0.000000126659
 86      -0.000000801678
 87       0.000000673281
 88      -0.000001933744
 89      -0.000000852000
 90      -0.000000077413
 91       0.000006537937
 92      -0.000005224749
 93       0.000016103600
 94       0.000005373243
 95       0.000000024896
 96      -0.000001972699
 97       0.000001576252
 98      -0.000004859650
 99      -0.000001618980
100       0.000000203219
101      -0.000002965258
102       0.000002075744
103       0.000002805519
104       0.000001131032
105       0.000000340345
106       0.000000822688
107      -0.000001428007
108       0.000019584438
109      -0.000013649160
110      -0.000020032716
111      -0.000007752469
112      -0.000001483932
113      -0.000003627468
114       0.000000538410
115      -0.000008243944
116       0.000005788216
117       0.000005668050
118       0.000002357001
119       0.000001610106
120       0.000005077130
121      -0.000001063740
122       0.000005538468
123      -0.000011131372
124       0.000030274414
125       0.000027581092
126      -0.000012563920
127       0.000004054219
128      -0.000010625576
129      -0.000003248307
130      -0.000015497266
131       0.000038571088
132       0.000011578412
133      -0.000018485591
134       0.000027316629
135       0.000006149833
136      -0.000003393461
137      -0.000001532667
138       0.000003766384
139      -0.000005391742
140      -0.000004812575
141       0.000014490474
142       0.000006449485
143      -0.000015310011
144       0.000021722015
145       0.000020991088
146      -0.000001241421
147       0.000000195788
148      -0.000000913141
149      -0.000001506369
150      -0.000000916518
151      -0.000001578671
152       0.000001657047
153       0.000001052248
154      -0.000005473040
155       0.000010977202
156      -0.000029607194
157      -0.000026867383
158       0.000011203501
159       0.000011223440
160      -0.000000487016
161       0.000002864457
162      -0.000040507237
163       0.000002506758
164      -0.000010031253
165      -0.000030449472
166       0.000009083449
167      -0.000004589647
168       0.000003554391
169      -0.000003644326
170       0.000000254953
171      -0.000007248795
172       0.000000630613
173      -0.000014983548
174       0.000014605730
175      -0.000001194644
176       0.000029809374
177      -0.000003836413
178       0.000001204465
179       0.000001096287
180       0.000000117860
181      -0.000001681284
182      -0.000000140073
183       0.000002359625
184       0.000000481166
 Sym=     1a
 Ene= -2.56044116331267E+02
 Spin= Alpha
 Occup= 1.000000
  1       0.000001706109
  2       0.000002184638
  3       0.000003826546
  4       0.000008493181
  5       0.000010584260
  6       0.000007216928
  7      -0.000033461185
  8      -0.000030394399
  9      -0.000004318188
 10       0.000024888053
 11      -0.000045678911
 12       0.000072109246
 13      -0.000114202726
 14       0.000153106462
 15      -0.000109085684
 16      -0.000015467421
 17       0.000032880616
 18      -0.000007678036
 19      -0.192235284071
 20      -0.250662822974
 21      -0.155287814673
 22      -0.261893948055
 23      -0.341493420122
 24      -0.211558156374
 25      -0.167462849480
 26      -0.218361118881
 27      -0.135276624737
 28      -0.009148863732
 29      -0.011929694715
 30      -0.007390520505
 31      -0.003010518684
 32      -0.003925232161
 33      -0.002431776305
 34       0.002072236479
 35       0.002701525242
 36       0.001673729420
 37      -0.001242880806
 38      -0.001619684445
 39      -0.001003603824
 40       0.000759888396
 41       0.000989354732
 42       0.000613218066
 43      -0.000457001432
 44      -0.000594369076
 45      -0.000368527892
 46       0.000239789241
 47       0.000312204865
 48       0.000193510165
 49      -0.000107371264
 50      -0.000140209017
 51      -0.000086819638
 52       0.000034273338
 53       0.000044754569
 54       0.000027712836
 55      -0.000001676957
 56       0.000002908613
 57       0.000003844582
 58      -0.000001189895
 59       0.000004374311
 60      -0.000000286698
 61       0.000000762623
 62       0.000001027216
 63      -0.000000443395
 64       0.000001405519
 65      -0.000004072245
 66       0.000001721606
 67       0.000002544904
 68       0.000000938704
 69      -0.000002131374
 70       0.000007902373
 71      -0.000002248400
 72      -0.000003499406
 73      -0.000002681183
 74       0.000006781403
 75      -0.000017234849
 76       0.000004907104
 77       0.000007668291
 78       0.000005796361
 79      -0.000014758160
 80       0.000026908782
 81      -0.000007435361
 82      -0.000011743673
 83      -0.000009122067
 84       0.000023537932
 85      -0.000002842447
 86       0.000001723251
 87       0.000002400666
 88       0.000000340961
 89      -0.000000271658
 90      -0.000006105960
 91       0.000001986322
 92       0.000003046955
 93       0.000001852754
 94      -0.000004625572
 95       0.000001877996
 96      -0.000000630387
 97      -0.000000961456
 98      -0.000000556560
 99       0.000001376543
100      -0.000000982650
101      -0.000000638181
102      -0.000000668789
103       0.000000482881
104      -0.000001538323
105      -0.000003546706
106       0.000001088669
107       0.000013043357
108       0.000005955728
109       0.000006229525
110      -0.000002177146
111       0.000008412217
112       0.000027624499
113      -0.000008923717
114      -0.000006734670
115      -0.000002911039
116      -0.000002996575
117       0.000000850229
118      -0.000003408692
119      -0.000012785155
120       0.000004163415
121       0.000000774945
122      -0.000004018364
123       0.000008020908
124      -0.000021568177
125      -0.000022658252
126      -0.000001651558
127      -0.000004576647
128       0.000006416366
129       0.000001380055
130       0.000015051505
131      -0.000023726927
132      -0.000005614899
133       0.000001865560
134      -0.000017581841
135      -0.000006698718
136       0.000002759266
137       0.000001185594
138      -0.000001257855
139       0.000001545799
140       0.000005174553
141      -0.000010890920
142      -0.000004672481
143       0.000006259171
144      -0.000008074382
145      -0.000019446765
146       0.000000272118
147      -0.000000960356
148       0.000001128262
149      -0.000000528636
150       0.000000853471
151       0.000002242883
152       0.000001640250
153       0.000000825079
154      -0.000004275366
155       0.000008521301
156      -0.000022760359
157      -0.000023740049
158      -0.000002102367
159       0.000008028119
160      -0.000002352653
161       0.000001227018
162      -0.000028774034
163       0.000006919425
164      -0.000005018323
165      -0.000018050137
166      -0.000003407035
167      -0.000006325892
168       0.000003022157
169      -0.000001396836
170       0.000000630724
171      -0.000004703621
172       0.000003291874
173      -0.000011903907
174       0.000006673713
175      -0.000002146933
176       0.000019451576
177      -0.000011030043
178       0.000000209335
179       0.000001496560
180      -0.000000607795
181      -0.000000035889
182       0.000000853130
183       0.000001025971
184      -0.000002658102
 Sym=     1a
 Ene= -2.56037259390477E+02
 Spin= Alpha
 Occup= 1.000000
  1       0.000000000349
  2       0.000000000446
  3       0.000000000787
  4       0.000000001725
  5       0.000000002199
  6       0.000000001400
  7      -0.000000006643
  8      -0.000000006441
  9      -0.000000000603
 10       0.000000004201
 11      -0.000000007736
 12       0.000000012193
 13      -0.000000019318
 14       0.000000025919
 15      -0.000000018535
 16      -0.000000002474
 17       0.000000005535
 18      -0.000000001295
 19      -0.086240673264
 20      -0.129477521583
 21       0.315760135025
 22      -0.117491824181
 23      -0.176396468442
 24       0.430182567926
 25      -0.075121005104
 26      -0.112782996602
 27       0.275046770941
 28      -0.004101094443
 29      -0.006157182193
 30       0.015015679168
 31      -0.001350513417
 32      -0.002027594830
 33       0.004944744076
 34       0.000926299970
 35       0.001390701669
 36      -0.003391534077
 37      -0.000551419352
 38      -0.000827874519
 39       0.002018948520
 40       0.000329833146
 41       0.000495196268
 42      -0.001207629939
 43      -0.000191963991
 44      -0.000288206447
 45       0.000702835459
 46       0.000106294777
 47       0.000159585575
 48      -0.000389183511
 49      -0.000050273035
 50      -0.000075477219
 51       0.000184071553
 52       0.000015983076
 53       0.000023996139
 54      -0.000058520953
 55      -0.000004255880
 56      -0.000002348449
 57      -0.000002975779
 58      -0.000000808617
 59       0.000002325962
 60      -0.000001645693
 61      -0.000000902328
 62      -0.000001154580
 63      -0.000000315872
 64       0.000000898204
 65      -0.000001417754
 66      -0.000000761350
 67      -0.000001004271
 68      -0.000000280320
 69       0.000000769237
 70       0.000000512807
 71       0.000000259544
 72       0.000000372022
 73       0.000000109141
 74      -0.000000273072
 75      -0.000001416087
 76      -0.000000736909
 77      -0.000001015138
 78      -0.000000291016
 79       0.000000759798
 80       0.000001878997
 81       0.000000977430
 82       0.000001346122
 83       0.000000385805
 84      -0.000001007118
 85      -0.000002119473
 86      -0.000001123179
 87      -0.000001512160
 88      -0.000000427512
 89       0.000001147137
 90      -0.000001006007
 91      -0.000000542449
 92      -0.000000710246
 93      -0.000000197268
 94       0.000000545522
 95       0.000000344745
 96       0.000000185402
 97       0.000000243774
 98       0.000000067894
 99      -0.000000186882
100      -0.000001463956
101       0.000000900957
102       0.000001461609
103       0.000000482961
104      -0.000001308858
105       0.000000553410
106      -0.000000155139
107      -0.000001285435
108       0.000000423746
109       0.000000776239
110       0.000000486934
111      -0.000001360836
112       0.000000734183
113      -0.000000204532
114       0.000002857483
115      -0.000001141318
116      -0.000001960509
117      -0.000001071449
118       0.000002910775
119      -0.000001505595
120       0.000000400925
121       0.000000000142
122      -0.000000000738
123       0.000000001473
124      -0.000000003971
125      -0.000000004154
126      -0.000000000245
127      -0.000000522586
128      -0.000000782165
129       0.000001911488
130       0.000001332604
131       0.000001992222
132      -0.000004872422
133      -0.000002177210
134      -0.000003272706
135       0.000007975628
136      -0.000001169126
137       0.000001345484
138      -0.000002144257
139      -0.000001308835
140       0.000000185980
141       0.000003396617
142      -0.000003900155
143       0.000006224654
144       0.000003797157
145      -0.000000543433
146       0.000001233237
147       0.000000610958
148      -0.000001789296
149       0.000000855127
150       0.000001740386
151      -0.000000366996
152       0.000001255810
153       0.000000000128
154      -0.000000000665
155       0.000000001325
156      -0.000000003541
157      -0.000000003754
158      -0.000000000543
159      -0.000000514652
160      -0.000000774923
161       0.000001889857
162       0.000001302120
163       0.000001962741
164      -0.000004786603
165      -0.000002170870
166      -0.000003255849
167       0.000007940884
168      -0.000001012743
169      -0.000002506422
170       0.000000588342
171       0.000000869920
172       0.000000998110
173       0.000002929389
174       0.000007241147
175      -0.000001695228
176      -0.000002510136
177      -0.000002885413
178       0.000001357888
179      -0.000001676891
180      -0.000000034649
181      -0.000001818916
182       0.000000880337
183      -0.000000972812
184      -0.000000897685
 Sym=     1a
 Ene= -6.46810840294698E+01
 Spin= Alpha
 Occup= 1.000000
  1       0.014367173459
  2       0.018271713791
  3       0.033768109189
  4       0.070281552109
  5       0.105005272282
  6       0.043026266589
  7      -0.343530711959
  8      -0.695593588976
  9       0.370215826358
 10       0.933941989445
 11       0.067041137253
 12       0.032223314896
 13      -0.021778302441
 14       0.014957702201
 15      -0.009881027724
 16       0.005808391711
 17      -0.002433993860
 18       0.000653814727
 19       0.000051017084
 20       0.000067035099
 21       0.000041399826
 22       0.000076550441
 23       0.000100551958
 24       0.000062106201
 25       0.000017443124
 26       0.000023067194
 27       0.000014215476
 28      -0.000193032830
 29      -0.000253347301
 30      -0.000156523581
 31      -0.000146816532
 32      -0.000193999479
 33      -0.000119587060
 34       0.000053437279
 35       0.000071692836
 36       0.000043971531
 37      -0.000061723408
 38      -0.000083830476
 39      -0.000051209764
 40       0.000093625163
 41       0.000128270707
 42       0.000078134385
 43      -0.000121019602
 44      -0.000165885630
 45      -0.000101030755
 46       0.000152879311
 47       0.000207400304
 48       0.000126744509
 49      -0.000025946765
 50      -0.000034842675
 51      -0.000021364588
 52       0.000005287402
 53       0.000007114998
 54       0.000004359706