[Molden Format]
[Title]
 Molden file created by orca_2mkl for BaseName=/home/nikolayandreadi_2125/_scratch/F1_cc/Dy_F1_cc

[Atoms] AU
Dy   1  66          0.0353246506        -0.6171108560        -1.5365608859 
F    2   9         -1.4976079611         2.7724398878        -0.5657688867 
[GTO]
  1 0
s   6 1.0 
  1205955.4869470000      2343.1624566555
   535980.2164210000      -627.7994472729
   238213.4295200000      1364.0035146170
   105872.6353420000       302.4256254711
    47054.5045970000       818.7689739381
    20913.1131540000       608.0650635993
s   1 1.0 
     9294.7169570000       674.6635063570
s   1 1.0 
     4130.9853140000       367.2402974633
s   1 1.0 
     1835.9934730000       199.9002981809
s   1 1.0 
      815.9970990000       108.8119399830
s   1 1.0 
      362.6653770000        59.2297179326
s   1 1.0 
      161.1846120000        32.2405747875
s   1 1.0 
       71.6376050000        17.5495459929
s   1 1.0 
       31.8389360000         9.5527629667
s   1 1.0 
       14.1506380000         5.1998654726
s   1 1.0 
        6.2891720000         2.8304481031
s   1 1.0 
        2.7951880000         1.5407009828
s   1 1.0 
        1.2423060000         0.8386515023
s   1 1.0 
        0.5521360000         0.4565040562
s   1 1.0 
        0.2453940000         0.2484895028
s   1 1.0 
        0.1090640000         0.1352605530
s   1 1.0 
        0.0484730000         0.0736266459
s   1 1.0 
        0.0215430000         0.0400764947
p   5 1.0 
    16500.5200280000      3551.8560429283
     6600.2080110000      1399.7999583687
     2640.0832040000      2214.2919302472
     1056.0332820000      2141.5505502747
      422.4133130000      2025.6781866708
p   1 1.0 
      168.9653250000       868.3345329533
p   1 1.0 
       67.5861300000       276.2244147341
p   1 1.0 
       27.0344520000        87.8692766435
p   1 1.0 
       10.8137810000        27.9519461152
p   1 1.0 
        4.3255120000         8.8917447952
p   1 1.0 
        1.7302050000         2.8285381540
p   1 1.0 
        0.6920820000         0.8997814396
p   1 1.0 
        0.2768330000         0.2862281950
p   1 1.0 
        0.1107330000         0.0910513565
p   1 1.0 
        0.0442930000         0.0289640280
p   1 1.0 
        0.0177170000         0.0092135674
d   4 1.0 
     1185.0486620000      5578.8882618905
      430.9267860000      5315.6245441556
      156.7006500000      4970.6577614337
       56.9820540000      2696.5017083068
d   1 1.0 
       20.7207470000       573.6929957731
d   1 1.0 
        7.5348170000        97.6893734623
d   1 1.0 
        2.7399330000        16.6347004211
d   1 1.0 
        0.9963390000         2.8325824609
d   1 1.0 
        0.3623050000         0.4823365324
d   1 1.0 
        0.1317470000         0.0821327509
d   1 1.0 
        0.0479080000         0.0139856983
d   1 1.0 
        0.0174210000         0.0023814857
f   4 1.0 
       33.8369440000      1676.3832547388
       11.2789810000       461.3524932850
        3.7596600000        58.3481478782
        1.2532200000         3.4646432581
f   1 1.0 
        0.4177400000         0.7999055676
f   1 1.0 
        0.1392470000         0.0675333410

  2 0
s   6 1.0 
    35479.1004410000         1.9229128581
     5318.4728983000         2.2734773358
     1210.4810975000         3.4747482552
      342.8551814000         5.2879612972
      112.0194318100         7.1666332516
       40.7147402500         7.7556346254
s   1 1.0 
       16.0396781100         5.7122450312
s   1 1.0 
        6.5038186700         2.9025947842
s   1 1.0 
        1.5440477500         0.9872011154
s   1 1.0 
        0.6122345300        -0.4932856223
s   1 1.0 
        0.2402798000         0.2445952611
p   4 1.0 
       80.2339004800         4.2755032106
       18.5940107400         4.7314752302
        5.6867902700         4.0864798013
        1.9511006300         2.2989954518
p   1 1.0 
        0.6697021100         0.8635593126
p   1 1.0 
        0.2165130000         0.2105208234
d   1 1.0 
        3.1070000000        20.7284714039
d   1 1.0 
        0.8550000000         2.1672588463
f   1 1.0 
        1.9170000000        24.6547062912

[5D]
[7F]
[9G]
[MO]
 Sym=     1a
 Ene= -1.98344524008655E+03
 Spin= Alpha
 Occup= 1.000000
  1      -0.090385576985
  2      -0.100328018285
  3      -0.175632025714
  4      -0.300264465409
  5      -0.338094090129
  6      -0.169985670741
  7      -0.009705060505
  8      -0.003289349775
  9       0.002393446494
 10      -0.001580563106
 11       0.001061126119
 12      -0.000708260481
 13       0.000464443808
 14      -0.000301455613
 15       0.000191843396
 16      -0.000113290573
 17       0.000048101043
 18      -0.000012815978
 19      -0.000000096163
 20       0.000000212720
 21       0.000000060930
 22       0.000000099495
 23      -0.000000220004
 24      -0.000000063011
 25      -0.000000094011
 26       0.000000207892
 27       0.000000059543
 28       0.000000157205
 29      -0.000000347616
 30      -0.000000099560
 31      -0.000000260851
 32       0.000000576786
 33       0.000000165196
 34       0.000000434304
 35      -0.000000960317
 36      -0.000000275042
 37      -0.000000762783
 38       0.000001686633
 39       0.000000483064
 40       0.000001280586
 41      -0.000002831574
 42      -0.000000810983
 43      -0.000001911894
 44       0.000004227493
 45       0.000001210785
 46       0.000003719754
 47      -0.000008224951
 48      -0.000002355686
 49      -0.000000726433
 50       0.000001606255
 51       0.000000460043
 52       0.000000135669
 53      -0.000000299984
 54      -0.000000085918
 55       0.000000006444
 56       0.000000003584
 57      -0.000000006701
 58       0.000000010609
 59       0.000000011874
 60      -0.000000066404
 61      -0.000000029256
 62       0.000000063748
 63      -0.000000089531
 64      -0.000000101657
 65       0.000000152287
 66       0.000000066004
 67      -0.000000145442
 68       0.000000202510
 69       0.000000230191
 70      -0.000000312926
 71      -0.000000135147
 72       0.000000298528
 73      -0.000000414888
 74      -0.000000471710
 75       0.000000600281
 76       0.000000258959
 77      -0.000000572461
 78       0.000000795123
 79       0.000000904092
 80      -0.000000920995
 81      -0.000000397225
 82       0.000000878249
 83      -0.000001219707
 84      -0.000001386884
 85       0.000002245142
 86       0.000000968232
 87      -0.000002140872
 88       0.000002973070
 89       0.000003380591
 90      -0.000000292648
 91      -0.000000126215
 92       0.000000279063
 93      -0.000000387553
 94      -0.000000440673
 95       0.000000041031
 96       0.000000017698
 97      -0.000000039128
 98       0.000000054343
 99       0.000000061791
100       0.000000059821
101      -0.000000029399
102       0.000000064993
103       0.000000053424
104       0.000000060729
105       0.000000120983
106      -0.000000036973
107      -0.000000294966
108       0.000000144937
109      -0.000000320467
110      -0.000000263436
111      -0.000000299531
112      -0.000000596761
113       0.000000182389
114       0.000000837465
115      -0.000000411490
116       0.000000909866
117       0.000000747951
118       0.000000850471
119       0.000001694430
120      -0.000000517879
121      -0.000000152776
122       0.000000700580
123      -0.000001315124
124       0.000003614518
125       0.000006620832
126       0.000011398057
127       0.000000304654
128      -0.000000673638
129      -0.000000192935
130      -0.000001199881
131       0.000002653122
132       0.000000759873
133       0.000001934934
134      -0.000004278438
135      -0.000001225376
136      -0.000000142797
137      -0.000000061580
138       0.000000136164
139      -0.000000189090
140      -0.000000215009
141       0.000000706231
142       0.000000304558
143      -0.000000673426
144       0.000000935187
145       0.000001063376
146      -0.000000095253
147       0.000000046803
148      -0.000000103488
149      -0.000000085072
150      -0.000000096733
151      -0.000000192725
152       0.000000058904
 Sym=     1a
 Ene= -3.35137783884493E+02
 Spin= Alpha
 Occup= 1.000000
  1       0.034049529797
  2       0.041713748507
  3       0.073954869547
  4       0.149196822700
  5       0.204281442464
  6       0.077416871727
  7      -0.476860207776
  8      -0.596826724389
  9      -0.092593740208
 10      -0.004386083307
 11       0.003851247928
 12      -0.002718580508
 13       0.001923187698
 14      -0.001290893314
 15       0.000828154771
 16      -0.000492177271
 17       0.000209520294
 18      -0.000055896102
 19      -0.000000967046
 20       0.000002142357
 21       0.000000613827
 22      -0.000000870127
 23       0.000001929716
 24       0.000000553025
 25      -0.000001006721
 26       0.000002230358
 27       0.000000639044
 28      -0.000001070081
 29       0.000002367104
 30       0.000000678011
 31      -0.000000369352
 32       0.000000816638
 33       0.000000233888
 34       0.000001584660
 35      -0.000003503913
 36      -0.000001003546
 37      -0.000003143682
 38       0.000006951143
 39       0.000001990857
 40       0.000005435980
 41      -0.000012019801
 42      -0.000003442559
 43      -0.000008317991
 44       0.000018392359
 45       0.000005267705
 46       0.000016171037
 47      -0.000035756654
 48      -0.000010240966
 49      -0.000003154083
 50       0.000006974164
 51       0.000001997451
 52       0.000000588937
 53      -0.000001302229
 54      -0.000000372968
 55       0.000000157461
 56       0.000000180595
 57      -0.000000228047
 58       0.000000499160
 59       0.000000540922
 60       0.000000166301
 61       0.000000081199
 62      -0.000000165152
 63       0.000000244715
 64       0.000000275955
 65       0.000000369622
 66       0.000000159560
 67      -0.000000352554
 68       0.000000489845
 69       0.000000556985
 70      -0.000001137870
 71      -0.000000490434
 72       0.000001084823
 73      -0.000001506054
 74      -0.000001712582
 75       0.000002571859
 76       0.000001109343
 77      -0.000002452559
 78       0.000003406258
 79       0.000003873116
 80      -0.000004012551
 81      -0.000001730398
 82       0.000003826170
 83      -0.000005313409
 84      -0.000006041737
 85       0.000009760505
 86       0.000004209183
 87      -0.000009307136
 88       0.000012924839
 89       0.000014696486
 90      -0.000001272925
 91      -0.000000548949
 92       0.000001213802
 93      -0.000001685618
 94      -0.000001916669
 95       0.000000178144
 96       0.000000076826
 97      -0.000000169871
 98       0.000000235904
 99       0.000000268239
100       0.000000264612
101      -0.000000129602
102       0.000000287477
103       0.000000236577
104       0.000000270317
105       0.000000539338
106      -0.000000165124
107      -0.000001324000
108       0.000000650326
109      -0.000001438458
110      -0.000001182616
111      -0.000001345421
112      -0.000002680958
113       0.000000819549
114       0.000003660302
115      -0.000001798417
116       0.000003976743
117       0.000003269114
118       0.000003717459
119       0.000007406605
120      -0.000002263779
121      -0.000000556374
122       0.000002780218
123      -0.000005490207
124       0.000015565251
125       0.000028511299
126       0.000049445768
127       0.000001347885
128      -0.000002980383
129      -0.000000853603
130      -0.000005198518
131       0.000011494730
132       0.000003292175
133       0.000008398445
134      -0.000018570265
135      -0.000005318659
136      -0.000000644050
137      -0.000000277744
138       0.000000614134
139      -0.000000852849
140      -0.000000969751
141       0.000003116032
142       0.000001343777
143      -0.000002971295
144       0.000004126244
145       0.000004691837
146      -0.000000429385
147       0.000000210976
148      -0.000000466506
149      -0.000000383492
150      -0.000000436065
151      -0.000000868797
152       0.000000265539
 Sym=     1a
 Ene= -2.97969072591177E+02
 Spin= Alpha
 Occup= 1.000000
  1       0.000000298751
  2       0.000000401349
  3       0.000000528419
  4       0.000001696293
  5       0.000000781071
  6       0.000003459757
  7      -0.000009185867
  8      -0.000002091271
  9      -0.000007065164
 10       0.000025668313
 11      -0.000046195695
 12       0.000073816740
 13      -0.000116348696
 14       0.000158437515
 15      -0.000143962919
 16       0.000058138377
 17       0.000015444576
 18      -0.000005206906
 19       0.142545794707
 20      -0.314933905246
 21      -0.090183178979
 22       0.191382092248
 23      -0.422830498315
 24      -0.121080003870
 25       0.120828135935
 26      -0.266951942111
 27      -0.076443261192
 28       0.005993530429
 29      -0.013241817285
 30      -0.003791872130
 31       0.002251425748
 32      -0.004974202068
 33      -0.001424392633
 34      -0.001545182022
 35       0.003413869437
 36       0.000977582740
 37       0.000933955714
 38      -0.002063469995
 39      -0.000590888846
 40      -0.000577465146
 41       0.001275880088
 42       0.000365359313
 43       0.000355536394
 44      -0.000785574102
 45      -0.000224958116
 46      -0.000199837726
 47       0.000441556188
 48       0.000126445003
 49       0.000083600440
 50      -0.000184702982
 51      -0.000052890796
 52      -0.000026209734
 53       0.000057905872
 54       0.000016581645
 55      -0.000000360419
 56      -0.000000150269
 57       0.000000340280
 58      -0.000000464342
 59      -0.000000528677
 60       0.000000114961
 61       0.000000054369
 62      -0.000000113106
 63       0.000000164964
 64       0.000000185917
 65      -0.000003098390
 66      -0.000001331712
 67       0.000002951313
 68      -0.000004091216
 69      -0.000004653304
 70       0.000007145248
 71       0.000003081308
 72      -0.000006813235
 73       0.000009461397
 74       0.000010758571
 75      -0.000014997401
 76      -0.000006467410
 77       0.000014300432
 78      -0.000019858581
 79      -0.000022581423
 80       0.000022439015
 81       0.000009676696
 82      -0.000021396371
 83       0.000029712835
 84       0.000033786704
 85      -0.000013896185
 86      -0.000005992705
 87       0.000013250370
 88      -0.000018400559
 89      -0.000020923899
 90      -0.000003425537
 91      -0.000001477311
 92       0.000003266119
 93      -0.000004535482
 94      -0.000005158231
 95       0.000001295080
 96       0.000000558517
 97      -0.000001234830
 98       0.000001714751
 99       0.000001950126
100      -0.000001893314
101       0.000000939933
102      -0.000002057308
103      -0.000001685174
104      -0.000001886272
105      -0.000003740379
106       0.000001136449
107       0.000010564455
108      -0.000005193974
109       0.000011478004
110       0.000009433312
111       0.000010717651
112       0.000021347912
113      -0.000006522022
114      -0.000008169241
115       0.000004015413
116      -0.000008875759
117      -0.000007295039
118      -0.000008292194
119      -0.000016518921
120       0.000005046885
121       0.000002019912
122      -0.000010297409
123       0.000020390851
124      -0.000055371496
125      -0.000073453859
126      -0.000072460875
127      -0.000006946087
128       0.000015360265
129       0.000004399380
130       0.000024746870
131      -0.000054722354
132      -0.000015673082
133      -0.000003962653
134       0.000008768918
135       0.000002511915
136       0.000004731972
137       0.000002040568
138      -0.000004512533
139       0.000006266777
140       0.000007124521
141      -0.000019726650
142      -0.000008506852
143       0.000018811406
144      -0.000026124093
145      -0.000029701382
146       0.000002246036
147      -0.000001103303
148       0.000002439987
149       0.000002006299
150       0.000002280546
151       0.000004543520
152      -0.000001389737
 Sym=     1a
 Ene= -2.97968724159432E+02
 Spin= Alpha
 Occup= 1.000000
  1      -0.000000000020
  2      -0.000000000025
  3      -0.000000000041
  4      -0.000000000097
  5      -0.000000000097
  6      -0.000000000108
  7       0.000000000397
  8       0.000000000297
  9       0.000000000181
 10      -0.000000000621
 11       0.000000001094
 12      -0.000000001757
 13       0.000000002770
 14      -0.000000003768
 15       0.000000003422
 16      -0.000000001375
 17      -0.000000000369
 18       0.000000000124
 19      -0.021289580576
 20      -0.107048629734
 21       0.340179878353
 22      -0.028583573538
 23      -0.143724408915
 24       0.456728423710
 25      -0.018045924149
 26      -0.090738821522
 27       0.288350456661
 28      -0.000895438324
 29      -0.004502458536
 30       0.014307943569
 31      -0.000335513071
 32      -0.001687031646
 33       0.005361061783
 34       0.000229312697
 35       0.001153032296
 36      -0.003664115823
 37      -0.000136787781
 38      -0.000687795520
 39       0.002185684677
 40       0.000081604329
 41       0.000410318912
 42      -0.001303919954
 43      -0.000047393181
 44      -0.000238296610
 45       0.000757267587
 46       0.000026183660
 47       0.000131652913
 48      -0.000418371992
 49      -0.000012473787
 50      -0.000062720901
 51       0.000199314922
 52       0.000003969753
 53       0.000019960844
 54      -0.000063431640
 55      -0.000000261775
 56       0.000000247352
 57      -0.000000479945
 58      -0.000000180894
 59      -0.000000041856
 60      -0.000000485097
 61       0.000000459900
 62      -0.000000889761
 63      -0.000000335436
 64      -0.000000078030
 65      -0.000000238493
 66       0.000000226152
 67      -0.000000437651
 68      -0.000000164867
 69      -0.000000038249
 70       0.000000315506
 71      -0.000000299213
 72       0.000000579142
 73       0.000000218039
 74       0.000000050478
 75      -0.000000699656
 76       0.000000663609
 77      -0.000001284260
 78      -0.000000483545
 79      -0.000000112000
 80       0.000000992029
 81      -0.000000940967
 82       0.000001821008
 83       0.000000685593
 84       0.000000158767
 85      -0.000001077665
 86       0.000001021854
 87      -0.000001977506
 88      -0.000000744935
 89      -0.000000172811
 90      -0.000001020352
 91       0.000000967198
 92      -0.000001871698
 93      -0.000000705464
 94      -0.000000163931
 95       0.000000316706
 96      -0.000000300215
 97       0.000000580970
 98       0.000000218965
 99       0.000000050875
100       0.000000127780
101       0.000000074471
102      -0.000000187228
103       0.000000113762
104       0.000000162738
105      -0.000000054433
106       0.000000071240
107      -0.000000931947
108      -0.000000538456
109       0.000001362585
110      -0.000000822632
111      -0.000001179289
112       0.000000394422
113      -0.000000515944
114       0.000001600664
115       0.000000924781
116      -0.000002340716
117       0.000001412465
118       0.000002025068
119      -0.000000677850
120       0.000000886206
121      -0.000000000048
122       0.000000000245
123      -0.000000000485
124       0.000000001317
125       0.000000001745
126       0.000000001717
127      -0.000000116358
128      -0.000000586402
129       0.000001862065
130       0.000000267055
131       0.000001347382
132      -0.000004276883
133      -0.000000573934
134      -0.000002887194
135       0.000009173538
136      -0.000001219085
137       0.000001155286
138      -0.000002235659
139      -0.000000842999
140      -0.000000196143
141       0.000003484701
142      -0.000003302131
143       0.000006390123
144       0.000002409770
145       0.000000560864
146       0.000001551747
147       0.000000896683
148      -0.000002269734
149       0.000001369157
150       0.000001963090
151      -0.000000657672
152       0.000000859332
 Sym=     1a
 Ene= -2.97968660521107E+02
 Spin= Alpha
 Occup= 1.000000
  1      -0.000000000280
  2      -0.000000000354
  3      -0.000000000574
  4      -0.000000001347
  5      -0.000000001393
  6      -0.000000001429
  7       0.000000005475
  8       0.000000004284
  9       0.000000002168
 10      -0.000000007921
 11       0.000000014037
 12      -0.000000022542
 13       0.000000035562
 14      -0.000000048401
 15       0.000000043954
 16      -0.000000017678
 17      -0.000000004747
 18       0.000000001596
 19       0.326898466668
 20       0.130356275624
 21       0.061479215144
 22       0.438896701168
 23       0.175017459181
 24       0.082542524281
 25       0.277092411661
 26       0.110495271452
 27       0.052112278692
 28       0.013749176084
 29       0.005482714007
 30       0.002585782610
 31       0.005151775921
 32       0.002054361505
 33       0.000968886620
 34      -0.003521067984
 35      -0.001404093070
 36      -0.000662203481
 37       0.002100351412
 38       0.000837564988
 39       0.000395013914
 40      -0.001253007841
 41      -0.000499682820
 42      -0.000235658773
 43       0.000727693456
 44       0.000290210535
 45       0.000136865617
 46      -0.000402032225
 47      -0.000160336640
 48      -0.000075615628
 49       0.000191533499
 50       0.000076377260
 51       0.000036021381
 52      -0.000060955351
 53      -0.000024306675
 54      -0.000011463671
 55      -0.000000047664
 56      -0.000000104045
 57      -0.000000155897
 58       0.000000438180
 59      -0.000000422891
 60      -0.000000087022
 61      -0.000000187762
 62      -0.000000281583
 63       0.000000793152
 64      -0.000000764409
 65      -0.000000042346
 66      -0.000000093067
 67      -0.000000141079
 68       0.000000396035
 69      -0.000000379054
 70       0.000000055269
 71       0.000000123234
 72       0.000000188322
 73      -0.000000527307
 74       0.000000502125
 75      -0.000000121913
 76      -0.000000271272
 77      -0.000000414193
 78       0.000001160179
 79      -0.000001105353
 80       0.000000172539
 81       0.000000384558
 82       0.000000587750
 83      -0.000001645845
 84       0.000001567059
 85      -0.000000190568
 86      -0.000000418953
 87      -0.000000635131
 88       0.000001782858
 89      -0.000001706412
 90      -0.000000183342
 91      -0.000000397837
 92      -0.000000598372
 93       0.000001683675
 94      -0.000001619672
 95       0.000000056838
 96       0.000000123456
 97       0.000000185798
 98      -0.000000522696
 99       0.000000502631
100       0.000000037939
101       0.000000096488
102      -0.000000006699
103       0.000000138465
104      -0.000000075242
105      -0.000000110031
106      -0.000000319823
107      -0.000000175943
108      -0.000000475642
109       0.000000074344
110      -0.000000850028
111       0.000000398604
112       0.000000701074
113       0.000001990690
114       0.000000293370
115       0.000000805258
116      -0.000000132452
117       0.000001448196
118      -0.000000679030
119      -0.000001204476
120      -0.000003397858
121      -0.000000000618
122       0.000000003149
123      -0.000000006235
124       0.000000016925
125       0.000000022432
126       0.000000022077
127       0.000001792505
128       0.000000708626
129       0.000000335173
130      -0.000004120077
131      -0.000001621777
132      -0.000000768192
133       0.000008820736
134       0.000003511236
135       0.000001656955
136      -0.000000221723
137      -0.000000476421
138      -0.000000712233
139       0.000002007726
140      -0.000001938924
141       0.000000635635
142       0.000001362551
143       0.000002033937
144      -0.000005736084
145       0.000005544793
146       0.000000279702
147       0.000000778523
148      -0.000000132184
149       0.000001398695
150      -0.000000659028
151      -0.000001172361
152      -0.000003286817
 Sym=     1a
 Ene= -7.66589255059575E+01
 Spin= Alpha
 Occup= 1.000000
  1       0.015958974819
  2       0.019815449715
  3       0.035448138349
  4       0.072760285740
  5       0.105142096290
  6       0.035274971900
  7      -0.366957865917
  8      -0.693652783571
  9       0.441504520363
 10       0.907311328460
 11       0.040810110281
 12       0.036289705152
 13      -0.024297532461
 14       0.016356014940
 15      -0.010673204404
 16       0.006366772360
 17      -0.002721260666
 18       0.000727508266
 19      -0.000018059398
 20       0.000039969064
 21       0.000011449683
 22      -0.000026843699
 23       0.000059410406
 24       0.000017018917
 25      -0.000002399902
 26       0.000005314187
 27       0.000001522475
 28       0.000061297985
 29      -0.000135672650
 30      -0.000038865709
 31       0.000057172736
 32      -0.000126519673
 33      -0.000036242450
 34      -0.000028506310
 35       0.000063041050
 36       0.000018055931
 37       0.000042783432
 38      -0.000094607356
 39      -0.000027096625
 40      -0.000072202148
 41       0.000159653448
 42       0.000045726107
 43       0.000107535874
 44      -0.000237780427
 45      -0.000068102164
 46      -0.000208614454
 47       0.000461279883
 48       0.000132113981
 49       0.000041140193
 50      -0.000090967872
 51      -0.000026053894
 52      -0.000007725366
 53       0.000017082154
 54       0.000004892464
 55      -0.000007055921
 56      -0.000004657095
 57       0.000007844492
 58      -0.000013507797
 59      -0.000014976194
 60      -0.000007582602
 61      -0.000005909096
 62       0.000009055201
 63      -0.000016848512
 64      -0.000018532401
 65      -0.000008430281
 66      -0.000004319033
 67       0.000008511131
 68      -0.000012926051
 69      -0.000014536411
 70       0.000016879019
 71       0.000007370943
 72      -0.000016158600
 73       0.000022588357
 74       0.000025662712
 75      -0.000032211575
 76      -0.000013929797
 77       0.000030742103
 78      -0.000042754232
 79      -0.000048605536
 80       0.000051228892
 81       0.000022113521
 82      -0.000048864027
 83       0.000067891971
 84       0.000077193110
 85      -0.000125843021
 86      -0.000054279532
 87       0.000120004732
 88      -0.000166667310
 89      -0.000189510482
 90       0.000016532512
 91       0.000007134309
 92      -0.000015767862
 93       0.000021904520
 94       0.000024905888
 95      -0.000002335527
 96      -0.000001008797
 97       0.000002228159
 98      -0.000003096858
 99      -0.000003520963
100      -0.000004927754
101       0.000002425262
102      -0.000005353896
103      -0.000004398203
104      -0.000004992329
105      -0.000009940586
106       0.000003034147
107       0.000016765419
108      -0.000008241163
109       0.000018214934
110       0.000014971250
111       0.000017013716
112       0.000033891277
113      -0.000010355668
114      -0.000047287985
115       0.000023236143
116      -0.000051376189
117      -0.000042232851
118      -0.000048018690
119      -0.000095667912
120       0.000029238660
121       0.000004372657
122      -0.000028056984
123       0.000061632942
124      -0.000191680399
125      -0.000358455063
126      -0.000631413920
127      -0.000016984140
128       0.000037554597
129       0.000010755912
130       0.000066899942
131      -0.000147926177
132      -0.000042367137
133      -0.000107656893
134       0.000238046174
135       0.000068178164
136       0.000008346660
137       0.000003599354
138      -0.000007958893
139       0.000011052358
140       0.000012567335
141      -0.000040669395
142      -0.000017538164
143       0.000038780096
144      -0.000053853429
145      -0.000061235293
146       0.000005674110
147      -0.000002788027
148       0.000006164650
149       0.000005067602
150       0.000005762064
151       0.000011479933
152      -0.000003508663
 Sym=     1a
 Ene= -6.49353095487982E+01
 Spin= Alpha
 Occup= 1.000000
  1       0.000004107810
  2       0.000005023846
  3       0.000009423840
  4       0.000017850436
  5       0.000029357471
  6       0.000003769964
  7      -0.000082542395
  8      -0.000224079563
  9       0.000231341813
 10       0.000063532735
 11       0.000242267074
 12      -0.000417674300
 13       0.000729354450
 14      -0.001021363468
 15       0.000937844890
 16      -0.000370539469
 17      -0.000114551196
 18       0.000037815290
 19       0.076182631798
 20      -0.168342222489
 21      -0.048207840219
 22       0.116188506408
 23      -0.256743972898
 24      -0.073523280495
 25       0.000425250822
 26      -0.000939675025
 27      -0.000269092344
 28      -0.288021163472
 29       0.636445876580
 30       0.182257787434
 31      -0.144069491566
 32       0.318353140521
 33       0.091166181213
 34       0.006897574460
 35      -0.015241792068
 36      -0.004364768253
 37      -0.006688258828
 38       0.014779341083
 39       0.004232341744
 40       0.003976272378
 41      -0.008786739501
 42      -0.002516259552
 43      -0.002441605708
 44       0.005395628434
 45       0.001545157869
 46       0.001373186489
 47      -0.003034590170
 48      -0.000869023898
 49      -0.000577612236
 50       0.001276359047
 51       0.000365508384
 52       0.000181338944
 53      -0.000400703736
 54      -0.000114748495
 55       0.000039404053
 56       0.000017052131
 57      -0.000037618027
 58       0.000052339096
 59       0.000059488961
 60       0.000031748183
 61       0.000013879443
 62      -0.000030408252
 63       0.000042536785
 64       0.000048308114
 65       0.000024458451
 66       0.000010613134
 67      -0.000023371364
 68       0.000032565048
 69       0.000037001784
 70      -0.000051781089
 71      -0.000022421029
 72       0.000049437766
 73      -0.000068800453
 74      -0.000078212063
 75       0.000098510329
 76       0.000042535669
 77      -0.000093970499
 78       0.000130582679
 79       0.000148472633
 80      -0.000149640723
 81      -0.000064557933
 82       0.000142706318
 83      -0.000198217136
 84      -0.000225386244
 85       0.000092709474
 86       0.000039994092
 87      -0.000088410673
 88       0.000122796313
 89       0.000139630892
 90       0.000023860195
 91       0.000010283359
 92      -0.000022745908
 93       0.000031575690
 94       0.000035910599
 95      -0.000008976569
 96      -0.000003868943
 97       0.000008557597
 98      -0.000011879989
 99      -0.000013510552
100       0.000010299690
101      -0.000005954012