[Molden Format]
[Title]
 Molden file created by orca_2mkl for BaseName=/home/nikolayandreadi_2125/_scratch/F_cc/Gd_F_cc

[Atoms] AU
Gd   1  64          0.3936223948         0.6012503846        -1.0517081826 
F    2   9         -1.5169889924        -2.1696059127        -2.9547701138 
F    3   9         -1.4485468912         3.6363943303         0.4384882727 
F    4   9          3.8953472819        -0.1963973474         0.3262423198 
[GTO]
  1 0
s   6 1.0 
  1133304.9414800000      2174.9610498235
   503691.0851020000      -577.4941628565
   223862.7044900000      1271.8793195317
    99494.5353290000       292.2852755405
    44219.7934790000       774.9724147105
    19653.2415460000       586.7258609135
s   1 1.0 
     8734.7740210000       643.9451069508
s   1 1.0 
     3882.1217870000       350.5193187461
s   1 1.0 
     1725.3874610000       190.7985502128
s   1 1.0 
      766.8388710000       103.8575758734
s   1 1.0 
      340.8172760000        56.5329037360
s   1 1.0 
      151.4743450000        30.7726150905
s   1 1.0 
       67.3219310000        16.7504899843
s   1 1.0 
       29.9208580000         9.1178118166
s   1 1.0 
       13.2981590000         4.9631080848
s   1 1.0 
        5.9102930000         2.7015738927
s   1 1.0 
        2.6267970000         1.4705506110
s   1 1.0 
        1.1674650000         0.8004661926
s   1 1.0 
        0.5188730000         0.4357183963
s   1 1.0 
        0.2306100000         0.2371748825
s   1 1.0 
        0.1024940000         0.1291022836
s   1 1.0 
        0.0455530000         0.0702745106
s   1 1.0 
        0.0202460000         0.0382529133
p   5 1.0 
    15432.8043060000      3126.8623215264
     6173.1217220000      1264.6366638851
     2469.2486890000      2002.5787782743
      987.6994760000      1963.6893411004
      395.0797900000      1867.4733471641
p   1 1.0 
      158.0319160000       798.6768471840
p   1 1.0 
       63.2127660000       254.0657253142
p   1 1.0 
       25.2851070000        80.8204162074
p   1 1.0 
       10.1140430000        25.7096451541
p   1 1.0 
        4.0456170000         8.1784507898
p   1 1.0 
        1.6182470000         2.6016334098
p   1 1.0 
        0.6472990000         0.8276014788
p   1 1.0 
        0.2589190000         0.2632661299
p   1 1.0 
        0.1035680000         0.0837475431
p   1 1.0 
        0.0414270000         0.0266406271
p   1 1.0 
        0.0165710000         0.0084747322
d   4 1.0 
     1092.7062230000      4841.5336151871
      397.3477180000      4644.8935401418
      144.4900790000      4335.5630527329
       52.5418470000      2336.0290078754
d   1 1.0 
       19.1061260000       497.7625276697
d   1 1.0 
        6.9476820000        84.7598081537
d   1 1.0 
        2.5264300000        14.4330396780
d   1 1.0 
        0.9187020000         2.4576823001
d   1 1.0 
        0.3340730000         0.4184971391
d   1 1.0 
        0.1214810000         0.0712622795
d   1 1.0 
        0.0441750000         0.0121347005
d   1 1.0 
        0.0160640000         0.0020663984
f   4 1.0 
       34.7127000000      1486.0079731034
       11.5709000000       452.7076001348
        3.8569670000        63.6295197498
        1.2856560000         3.8109128600
f   1 1.0 
        0.4285520000         0.8472430467
f   1 1.0 
        0.1428510000         0.0715298757

  2 0
s   6 1.0 
    35479.1004410000         1.9229128581
     5318.4728983000         2.2734773358
     1210.4810975000         3.4747482552
      342.8551814000         5.2879612972
      112.0194318100         7.1666332516
       40.7147402500         7.7556346254
s   1 1.0 
       16.0396781100         5.7122450312
s   1 1.0 
        6.5038186700         2.9025947842
s   1 1.0 
        1.5440477500         0.9872011154
s   1 1.0 
        0.6122345300        -0.4932856223
s   1 1.0 
        0.2402798000         0.2445952611
p   4 1.0 
       80.2339004800         4.2755032106
       18.5940107400         4.7314752302
        5.6867902700         4.0864798013
        1.9511006300         2.2989954518
p   1 1.0 
        0.6697021100         0.8635593126
p   1 1.0 
        0.2165130000         0.2105208234
d   1 1.0 
        3.1070000000        20.7284714039
d   1 1.0 
        0.8550000000         2.1672588463
f   1 1.0 
        1.9170000000        24.6547062912

  3 0
s   6 1.0 
    35479.1004410000         1.9229128581
     5318.4728983000         2.2734773358
     1210.4810975000         3.4747482552
      342.8551814000         5.2879612972
      112.0194318100         7.1666332516
       40.7147402500         7.7556346254
s   1 1.0 
       16.0396781100         5.7122450312
s   1 1.0 
        6.5038186700         2.9025947842
s   1 1.0 
        1.5440477500         0.9872011154
s   1 1.0 
        0.6122345300        -0.4932856223
s   1 1.0 
        0.2402798000         0.2445952611
p   4 1.0 
       80.2339004800         4.2755032106
       18.5940107400         4.7314752302
        5.6867902700         4.0864798013
        1.9511006300         2.2989954518
p   1 1.0 
        0.6697021100         0.8635593126
p   1 1.0 
        0.2165130000         0.2105208234
d   1 1.0 
        3.1070000000        20.7284714039
d   1 1.0 
        0.8550000000         2.1672588463
f   1 1.0 
        1.9170000000        24.6547062912

  4 0
s   6 1.0 
    35479.1004410000         1.9229128581
     5318.4728983000         2.2734773358
     1210.4810975000         3.4747482552
      342.8551814000         5.2879612972
      112.0194318100         7.1666332516
       40.7147402500         7.7556346254
s   1 1.0 
       16.0396781100         5.7122450312
s   1 1.0 
        6.5038186700         2.9025947842
s   1 1.0 
        1.5440477500         0.9872011154
s   1 1.0 
        0.6122345300        -0.4932856223
s   1 1.0 
        0.2402798000         0.2445952611
p   4 1.0 
       80.2339004800         4.2755032106
       18.5940107400         4.7314752302
        5.6867902700         4.0864798013
        1.9511006300         2.2989954518
p   1 1.0 
        0.6697021100         0.8635593126
p   1 1.0 
        0.2165130000         0.2105208234
d   1 1.0 
        3.1070000000        20.7284714039
d   1 1.0 
        0.8550000000         2.1672588463
f   1 1.0 
        1.9170000000        24.6547062912

[5D]
[7F]
[9G]
[MO]
 Sym=     1a
 Ene= -1.85300294328556E+03
 Spin= Alpha
 Occup= 1.000000
  1       0.086997669281
  2       0.097960336340
  3       0.173998001221
  4       0.299847640027
  5       0.340956878469
  6       0.172342176457
  7       0.010167523707
  8       0.003229500191
  9      -0.002351064427
 10       0.001551543330
 11      -0.001045119785
 12       0.000702086126
 13      -0.000466789236
 14       0.000311971128
 15      -0.000211071623
 16       0.000134734039
 17      -0.000050102664
 18       0.000012873682
 19       0.000000029951
 20       0.000000082837
 21      -0.000000165131
 22      -0.000000033638
 23      -0.000000074732
 24       0.000000147440
 25       0.000000026471
 26       0.000000059111
 27      -0.000000112610
 28      -0.000000031709
 29      -0.000000065023
 30       0.000000118481
 31       0.000000045531
 32       0.000000088954
 33      -0.000000156980
 34      -0.000000072141
 35      -0.000000138249
 36       0.000000241064
 37       0.000000123524
 38       0.000000237514
 39      -0.000000420589
 40      -0.000000204271
 41      -0.000000394878
 42       0.000000719816
 43       0.000000339788
 44       0.000000604292
 45      -0.000001064583
 46      -0.000000694638
 47      -0.000001210092
 48       0.000002164465
 49       0.000000137367
 50       0.000000270148
 51      -0.000000490020
 52      -0.000000028052
 53      -0.000000057376
 54       0.000000107850
 55       0.000000000723
 56      -0.000000000531
 57      -0.000000001192
 58       0.000000000114
 59       0.000000000525
 60       0.000000099074
 61      -0.000000091333
 62      -0.000000139118
 63      -0.000000014693
 64       0.000000050100
 65      -0.000000242101
 66       0.000000223241
 67       0.000000339859
 68       0.000000036041
 69      -0.000000122707
 70       0.000000513360
 71      -0.000000472964
 72      -0.000000719638
 73      -0.000000077166
 74       0.000000261087
 75      -0.000001014162
 76       0.000000932993
 77       0.000001418237
 78       0.000000155029
 79      -0.000000519618
 80       0.000001600864
 81      -0.000001469786
 82      -0.000002232993
 83      -0.000000248938
 84       0.000000819392
 85      -0.000004257586
 86       0.000003903629
 87       0.000005949637
 88       0.000000649107
 89      -0.000002149525
 90       0.000000584967
 91      -0.000000545204
 92      -0.000000842280
 93      -0.000000069694
 94       0.000000289042
 95      -0.000000117585
 96       0.000000109809
 97       0.000000170264
 98       0.000000013196
 99      -0.000000058504
100      -0.000000084049
101      -0.000000039580
102      -0.000000036600
103       0.000000100625
104      -0.000000299306
105      -0.000000326730
106       0.000000097004
107       0.000000418152
108       0.000000202376
109       0.000000191771
110      -0.000000497540
111       0.000001482899
112       0.000001626923
113      -0.000000483014
114      -0.000001139441
115      -0.000000612354
116      -0.000000622494
117       0.000001399902
118      -0.000004226178
119      -0.000004667108
120       0.000001375395
121       0.000000140970
122      -0.000000648926
123       0.000001224591
124      -0.000003461215
125      -0.000006543702
126      -0.000012022561
127      -0.000000330562
128      -0.000000483206
129      -0.000000323702
130       0.000001403723
131       0.000002049473
132       0.000001372300
133      -0.000002098204
134      -0.000003183599
135      -0.000001968253
136       0.000000076201
137      -0.000000142088
138      -0.000000208384
139       0.000000050929
140      -0.000000143011
141      -0.000000315674
142       0.000000729987
143       0.000001062553
144      -0.000000325989
145       0.000000887322
146      -0.000000080022
147       0.000000005660
148       0.000000008576
149      -0.000000046113
150       0.000000115344
151       0.000000072055
152      -0.000000016672
153       0.000000138184
154      -0.000000636889
155       0.000001204792
156      -0.000003446469
157      -0.000006575591
158      -0.000012037428
159      -0.000000312569
160       0.000000513493
161       0.000000260199
162       0.000001367429
163      -0.000002241640
164      -0.000001134748
165      -0.000001983097
166       0.000003278160
167       0.000001824602
168       0.000000104122
169       0.000000047498
170      -0.000000177067
171       0.000000070102
172       0.000000175841
173      -0.000000515626
174      -0.000000397208
175       0.000000920959
176      -0.000000475012
177      -0.000001027364
178       0.000000066057
179      -0.000000021190
180       0.000000009320
181       0.000000047702
182       0.000000078228
183       0.000000079830
184       0.000000007288
185       0.000000136808
186      -0.000000630799
187       0.000001194211
188      -0.000003428483
189      -0.000006551733
190      -0.000011936271
191       0.000000588063
192      -0.000000137017
193       0.000000238658
194      -0.000002591465
195       0.000000604443
196      -0.000001050001
197       0.000003751328
198      -0.000000926679
199       0.000001656927
200       0.000000106344
201      -0.000000166448
202      -0.000000015316
203      -0.000000164486
204       0.000000096031
205      -0.000000549895
206       0.000000926704
207      -0.000000066407
208       0.000001022271
209      -0.000000536651
210       0.000000059469
211       0.000000023511
212      -0.000000018747
213      -0.000000076685
214       0.000000030609
215       0.000000060015
216      -0.000000052026
 Sym=     1a
 Ene= -3.10616019792555E+02
 Spin= Alpha
 Occup= 1.000000
  1       0.032481146025
  2       0.040293235555
  3       0.072581991562
  4       0.147582383875
  5       0.205319569660
  6       0.084145833217
  7      -0.468437324281
  8      -0.603402316538
  9      -0.098304801586
 10      -0.004140479846
 11       0.003619434555
 12      -0.002578366302
 13       0.001863515489
 14      -0.001293537459
 15       0.000883142901
 16      -0.000566862575
 17       0.000211140749
 18      -0.000054325746
 19       0.000000417742
 20       0.000000055973
 21      -0.000000125423
 22       0.000000566299
 23       0.000000016763
 24      -0.000000043865
 25       0.000000380160
 26      -0.000000160904
 27       0.000000298582
 28      -0.000000034485
 29      -0.000000217335
 30       0.000000466866
 31      -0.000000076887
 32      -0.000000147988
 33       0.000000221060
 34       0.000000256305
 35       0.000000486094
 36      -0.000000834511
 37      -0.000000482490
 38      -0.000000926672
 39       0.000001638742
 40       0.000000832578
 41       0.000001617850
 42      -0.000002966047
 43      -0.000001431275
 44      -0.000002564359
 45       0.000004556343
 46       0.000002925864
 47       0.000005098982
 48      -0.000009138253
 49      -0.000000576452
 50      -0.000001135889
 51       0.000002064782
 52       0.000000117424
 53       0.000000241055
 54      -0.000000454524
 55      -0.000000161474
 56       0.000000143448
 57       0.000000276498
 58      -0.000000024417
 59      -0.000000051326
 60      -0.000000101479
 61       0.000000097898
 62       0.000000129102
 63       0.000000029612
 64      -0.000000059881
 65       0.000000831638
 66      -0.000000766905
 67      -0.000001151651
 68      -0.000000138234
 69       0.000000429219
 70      -0.000001962295
 71       0.000001808499
 72       0.000002740349
 73       0.000000304876
 74      -0.000001004164
 75       0.000004310127
 76      -0.000003964072
 77      -0.000006020507
 78      -0.000000664729
 79       0.000002215238
 80      -0.000006886771
 81       0.000006320607
 82       0.000009596560
 83       0.000001078596
 84      -0.000003535682
 85       0.000018010048
 86      -0.000016510315
 87      -0.000025159651
 88      -0.000002751914
 89       0.000009098981
 90      -0.000002468215
 91       0.000002300648
 92       0.000003554604
 93       0.000000293542
 94      -0.000001220021
 95       0.000000496991
 96      -0.000000464192
 97      -0.000000719801
 98      -0.000000055666
 99       0.000000247444
100       0.000000397508
101       0.000000179196
102       0.000000160278
103      -0.000000474483
104       0.000001407656
105       0.000001528946
106      -0.000000454273
107      -0.000001854857
108      -0.000000890686
109      -0.000000839598
110       0.000002202585
111      -0.000006559784
112      -0.000007192782
113       0.000002136322
114       0.000004846032
115       0.000002600816
116       0.000002642571
117      -0.000005950693
118       0.000017962362
119       0.000019834615
120      -0.000005845911
121      -0.000000496466
122       0.000002500617
123      -0.000004981470
124       0.000014522672
125       0.000027366183
126       0.000050599607
127       0.000001439038
128       0.000002103804
129       0.000001408928
130      -0.000005919937
131      -0.000008646319
132      -0.000005789313
133       0.000008800834
134       0.000013365096
135       0.000008252666
136      -0.000000331283
137       0.000000633826
138       0.000000929197
139      -0.000000235787
140       0.000000656664
141       0.000001356914
142      -0.000003158483
143      -0.000004597931
144       0.000001420396
145      -0.000003858454
146       0.000000367937
147      -0.000000028960
148      -0.000000043528
149       0.000000213115
150      -0.000000534633
151      -0.000000341791
152       0.000000079152
153      -0.000000487699
154       0.000002458345
155      -0.000004909338
156       0.000014478354
157       0.000027517846
158       0.000050668736
159       0.000001363718
160      -0.000002240437
161      -0.000001135629
162      -0.000005771533
163       0.000009465853
164       0.000004792129
165       0.000008314265
166      -0.000013751699
167      -0.000007665469
168      -0.000000461735
169      -0.000000230502
170       0.000000792317
171      -0.000000327130
172      -0.000000799126
173       0.000002229236
174       0.000001739280
175      -0.000003991010
176       0.000002073127
177       0.000004463183
178      -0.000000311607
179       0.000000093586
180      -0.000000048947
181      -0.000000223360
182      -0.000000373741
183      -0.000000385077
184      -0.000000032647
185      -0.000000483152
186       0.000002436132
187      -0.000004868745
188       0.000014407584
189       0.000027421460
190       0.000050241880
191      -0.000002567336
192       0.000000598214
193      -0.000001042169
194       0.000010945139
195      -0.000002552119
196       0.000004434943
197      -0.000015732424
198       0.000003888502
199      -0.000006958437
200      -0.000000474729
201       0.000000752088
202       0.000000050855
203       0.000000755321
204      -0.000000433791
205       0.000002381805
206      -0.000004024069
207       0.000000306010
208      -0.000004450495
209       0.000002329645
210      -0.000000283550
211      -0.000000114811
212       0.000000081286
213       0.000000365745
214      -0.000000150424
215      -0.000000293651
216       0.000000250606
 Sym=     1a
 Ene= -2.76859342628683E+02
 Spin= Alpha
 Occup= 1.000000
  1      -0.000000032889
  2      -0.000000050509
  3      -0.000000047198
  4      -0.000000256541
  5       0.000000020556
  6      -0.000000680886
  7       0.000002132866
  8      -0.000000589911
  9       0.000001130696
 10      -0.000006151525
 11       0.000011456149
 12      -0.000018232953
 13       0.000029313764
 14      -0.000039900074
 15       0.000027012034
 16       0.000005783351
 17      -0.000005148156
 18       0.000001186631
 19      -0.004495940505
 20      -0.182444591729
 21       0.303998494651
 22      -0.006082128400
 23      -0.246786941587
 24       0.411209048566
 25      -0.003864352087
 26      -0.156812855274
 27       0.261289583264
 28      -0.000204453383
 29      -0.008184243417
 30       0.013637212744
 31      -0.000065396490
 32      -0.002864622821
 33       0.004772786285
 34       0.000038980492
 35       0.001963980079
 36      -0.003271765446
 37      -0.000011428783
 38      -0.001174496345
 39       0.001955662114
 40      -0.000013838343
 41       0.000707700369
 42      -0.001176776238
 43       0.000026765300
 44      -0.000417167539
 45       0.000692244396
 46       0.000003517729
 47       0.000226140329
 48      -0.000377177704
 49      -0.000007584999
 50      -0.000104405178
 51       0.000174490833
 52       0.000002223252
 53       0.000033247053
 54      -0.000055537486
 55      -0.000000094235
 56      -0.000000052981
 57       0.000000069310
 58       0.000000070893
 59       0.000000034353
 60      -0.000000347165
 61       0.000000451504
 62       0.000000025291
 63       0.000000570294
 64      -0.000000232919
 65       0.000000389041
 66      -0.000001440190
 67       0.000000993040
 68      -0.000001909988
 69       0.000000723393
 70      -0.000001339403
 71       0.000003634372
 72      -0.000002063930
 73       0.000004847054
 74      -0.000001827436
 75       0.000002961679
 76      -0.000007859716
 77       0.000004393100
 78      -0.000010487655
 79       0.000003945029
 80      -0.000004687852
 81       0.000012283228
 82      -0.000006842150
 83       0.000016433845
 84      -0.000006142849
 85      -0.000001361890
 86       0.000001258578
 87       0.000001157999
 88       0.000000919084
 89      -0.000000552834
 90       0.000000610345
 91      -0.000002372132
 92       0.000001977302
 93      -0.000003392764
 94       0.000001131171
 95      -0.000000171596
 96       0.000000708063
 97      -0.000000605335
 98       0.000001014823
 99      -0.000000339811
100       0.000001016728
101       0.000000112499
102      -0.000000817571
103      -0.000001442249
104       0.000000525736
105       0.000000610162
106      -0.000000843859
107      -0.000005266713
108      -0.000000867423
109       0.000003834044
110       0.000007478429
111      -0.000002474791
112      -0.000003282440
113       0.000004478541
114       0.000001048433
115      -0.000001791215
116      -0.000004222914
117      -0.000001479141
118       0.000000766970
119      -0.000001574928
120      -0.000000007060
121       0.000000057446
122      -0.000000300257
123       0.000000614415
124      -0.000001861539
125      -0.000002534612
126      -0.000002153670
127      -0.000000433005
128      -0.000001377066
129       0.000001490956
130       0.000001471147
131       0.000004062041
132      -0.000003296714
133       0.000000161779
134      -0.000003643478
135       0.000007726184
136       0.000002284255
137       0.000000954712
138       0.000000845970
139       0.000001062507
140      -0.000001165032
141      -0.000006912709
142      -0.000002616781
143      -0.000002074783
144      -0.000003427853
145       0.000003906579
146      -0.000000457819
147      -0.000001818263
148      -0.000002568503
149      -0.000000344804
150      -0.000000773398
151       0.000001407929
152       0.000000330805
153       0.000000078468
154      -0.000000410956
155       0.000000844856
156      -0.000002579962
157      -0.000003208480
158      -0.000001533756
159      -0.000000583400
160      -0.000000418854
161       0.000002082709
162       0.000002061309
163       0.000000016724
164      -0.000005814885
165       0.000000535644
166      -0.000005662572
167       0.000006745294
168      -0.000001621746
169       0.000001518998
170      -0.000001817192
171      -0.000001179543
172      -0.000000104336
173       0.000004655407
174      -0.000004949885
175       0.000006093580
176       0.000003132407
177      -0.000000308291
178       0.000000547877
179       0.000001429443
180      -0.000002502228
181       0.000000127526
182       0.000001576516
183      -0.000001070890
184       0.000000884325
185      -0.000000444036
186       0.000002325464
187      -0.000004790662
188       0.000014477557
189       0.000014768049
190      -0.000005696619
191      -0.000006028585
192       0.000000265507
193      -0.000000504939
194       0.000023187521
195      -0.000002461932
196       0.000004372503
197       0.000006977846
198      -0.000005966316
199       0.000010095282
200      -0.000002463315
201       0.000000312887
202       0.000000444901
203       0.000003786366
204      -0.000000140437
205       0.000009426304
206      -0.000004559485
207      -0.000000546031
208      -0.000015800698
209       0.000002509615
210       0.000000085737
211      -0.000002496999
212       0.000000407326
213      -0.000000095655
214       0.000001109683
215      -0.000002237369
216      -0.000000227665
 Sym=     1a
 Ene= -2.76859338510307E+02
 Spin= Alpha
 Occup= 1.000000
  1      -0.000000034267
  2      -0.000000040354
  3      -0.000000083372
  4      -0.000000131800
  5      -0.000000274562
  6       0.000000057748
  7       0.000000167410
  8       0.000000952746
  9      -0.000000361234
 10       0.000001569582
 11      -0.000002854911
 12       0.000004507811
 13      -0.000007043338
 14       0.000009269028
 15      -0.000006896572
 16       0.000000669557
 17       0.000000840850
 18      -0.000000223784
 19       0.348283968326
 20      -0.059155451525
 21      -0.030350157383
 22       0.471110961113
 23      -0.080017067483
 24      -0.041054047210
 25       0.299353237648
 26      -0.050844611478
 27      -0.026086269422
 28       0.015616518170
 29      -0.002650896310
 30      -0.001363123604
 31       0.005481806734
 32      -0.000933966840
 33      -0.000473438724
 34      -0.003773303216
 35       0.000646132052
 36       0.000321099035
 37       0.002286881385
 38      -0.000398201277
 39      -0.000184954229
 40      -0.001430851058
 41       0.000260601074
 42       0.000099164745
 43       0.000890879716
 44      -0.000172219382
 45      -0.000047463616
 46      -0.000437758362
 47       0.000074910951
 48       0.000036124870
 49       0.000186730462
 50      -0.000028736868
 51      -0.000020268041
 52      -0.000059932653
 53       0.000009354041
 54       0.000006347589
 55       0.000000078448
 56       0.000000054706
 57      -0.000000093625
 58       0.000000006222
 59       0.000000038196
 60      -0.000000089536
 61       0.000000739235
 62      -0.000001074581
 63       0.000001582860
 64      -0.000000032912
 65       0.000000386784
 66      -0.000003928110
 67       0.000004214018
 68      -0.000005760141
 69       0.000000604500
 70      -0.000000914998
 71       0.000009381815
 72      -0.000010412111
 73       0.000014354250
 74      -0.000001315452
 75       0.000001980016
 76      -0.000020241569
 77       0.000022446940
 78      -0.000031004309
 79       0.000002790968
 80      -0.000003135580
 81       0.000031674506
 82      -0.000035026458
 83       0.000048545918
 84      -0.000004270598
 85      -0.000000089034
 86       0.000000814023
 87      -0.000000959481
 88       0.000001730881
 89       0.000000371413
 90       0.000000742969
 91      -0.000007055316
 92       0.000007343347
 93      -0.000010248760
 94       0.000001017746
 95      -0.000000222401
 96       0.000002125122
 97      -0.000002209244
 98       0.000003073652
 99      -0.000000314211
100       0.000001372441
101       0.000001427688
102      -0.000000786610
103      -0.000003382737
104      -0.000002157231
105      -0.000000528714
106      -0.000001981575
107      -0.000007224283
108      -0.000007389974
109       0.000004233124
110       0.000017842634
111       0.000011141878
112       0.000002745672
113       0.000010452020
114       0.000001158006
115       0.000002803528
116      -0.000000734926
117      -0.000002756316
118      -0.000002877963
119       0.000000026397
120      -0.000001702801
121       0.000000394018
122      -0.000002052100
123       0.000004182454
124      -0.000012201408
125      -0.000012685224
126       0.000001732984
127      -0.000001024678
128      -0.000003872105
129      -0.000002820675
130       0.000005776870
131       0.000014448900
132       0.000010284567
133       0.000010330689
134       0.000003132584
135       0.000002180238
136      -0.000000283140
137      -0.000000699277
138      -0.000002792675
139       0.000002331264
140      -0.000000834621
141       0.000000160129
142       0.000004013863
143       0.000011478143
144      -0.000008370043
145       0.000005440475
146      -0.000000365010
147       0.000000502333
148       0.000000948520
149      -0.000002156989
150       0.000000253074
151       0.000000702348
152       0.000002009048
153       0.000000721614
154      -0.000003774045
155       0.000007753412
156      -0.000023265502
157      -0.000024361694
158       0.000005449155
159      -0.000003157743
160       0.000007613859
161       0.000003534423
162       0.000014303845
163      -0.000029835961
164      -0.000014184606
165       0.000013750119
166      -0.000011412482
167      -0.000005650449
168       0.000001390215
169       0.000001231839
170      -0.000003401306
171       0.000003437787
172       0.000002790994
173      -0.000006855962
174      -0.000006922357
175       0.000015703418
176      -0.000013945721
177      -0.000014776711
178       0.000000861176
179       0.000000163327
180      -0.000000007108
181       0.000001853855
182       0.000000555621
183       0.000001168452
184      -0.000001941003
185      -0.000000994831
186       0.000005211596
187      -0.000010738519
188       0.000032575124
189       0.000034568886
190      -0.000007275731
191      -0.000010876399
192       0.000002663168
193      -0.000005168957
194       0.000044958978
195      -0.000010674431
196       0.000019982635
197       0.000024527561
198      -0.000005001840
199       0.000005492103
200      -0.000001637468
201       0.000005154875
202      -0.000001303861
203       0.000004742820
204      -0.000002554436
205       0.000009282393
206      -0.000023696804
207       0.000005791909
208      -0.000024040203
209       0.000012319808
210      -0.000001351350
211       0.000000708313
212      -0.000000117725
213       0.000001897934
214      -0.000001050711
215      -0.000000720291
216       0.000000889636
 Sym=     1a
 Ene= -2.76859323967824E+02
 Spin= Alpha
 Occup= 1.000000
  1      -0.000000008713
  2      -0.000000010749
  3      -0.000000020188
  4      -0.000000038864
  5      -0.000000059354
  6      -0.000000014386
  7       0.000000136404
  8       0.000000243547
  9      -0.000000213840
 10       0.000000233708
 11      -0.000000328620
 12       0.000000462718
 13      -0.000000384920
 14       0.000000012094
 15      -0.000001656686
 16       0.000004787266
 17      -0.000000815675
 18       0.000000100732
 19       0.066334580794
 20       0.298222636706
 21       0.179959422524
 22       0.089728327498
 23       0.403394583831
 24       0.243424259434
 25       0.057015158054
 26       0.256324929628
 27       0.154676664164
 28       0.002974250715
 29       0.013370958642
 30       0.008068089628
 31       0.001044242016
 32       0.004695523560
 33       0.002834363181
 34      -0.000718978056
 35      -0.003233958803
 36      -0.001953123365
 37       0.000436088843
 38       0.001963705152
 39       0.001187991124
 40      -0.000273247859
 41      -0.001234672086
 42      -0.000750404692
 43       0.000170468470
 44       0.000774123622
 45       0.000473468159
 46      -0.000085438160
 47      -0.000380842064
 48      -0.000230457036
 49       0.000035990780
 50       0.000159833130
 51       0.000095675729
 52      -0.000011502654
 53      -0.000051216286
 54      -0.000030684050
 55      -0.000000053427
 56      -0.000000173304
 57      -0.000000051764
 58      -0.000000032464
 59      -0.000000319612
 60      -0.000000394013
 61      -0.000000901306
 62      -0.000000445235
 63       0.000000054782
 64      -0.000001789266
 65       0.000000662738
 66       0.000003414364
 67       0.000001082141
 68      -0.000000594936
 69       0.000007251537
 70      -0.000001967229
 71      -0.000008528178