[Molden Format]
[Title]
 Molden file created by orca_2mkl for BaseName=/home/nikolayandreadi_2125/_scratch/F1_cc/Ce_F1_cc

[Atoms] AU
Ce   1  58          0.0331646937        -0.6123317386        -1.5351927242 
F    2   9         -1.4954480042         2.7676607704        -0.5671370484 
[GTO]
  1 0
s   6 1.0 
   928839.8476080000      1720.3140985147
   412817.7100480000      -444.1821597056
   183474.5377990000      1020.2336346955
    81544.2390220000       259.7896176938
    36241.8840100000       650.9759730419
    16107.5040040000       521.6380289536
s   1 1.0 
     7158.8906690000       554.6824046748
s   1 1.0 
     3181.7291860000       301.9308579294
s   1 1.0 
     1414.1018600000       164.3503420785
s   1 1.0 
      628.4897160000        89.4609949684
s   1 1.0 
      279.3287630000        48.6963977223
s   1 1.0 
      124.1461170000        26.5069615136
s   1 1.0 
       55.1760520000        14.4285622978
s   1 1.0 
       24.5226900000         7.8539145759
s   1 1.0 
       10.8989730000         4.2751295007
s   1 1.0 
        4.8439880000         2.3270857469
s   1 1.0 
        2.1528840000         1.2667052334
s   1 1.0 
        0.9568370000         0.6895068146
s   1 1.0 
        0.4252610000         0.3753200446
s   1 1.0 
        0.1890050000         0.2042984455
s   1 1.0 
        0.0840020000         0.1112057675
s   1 1.0 
        0.0373340000         0.0605324824
s   1 1.0 
        0.0165930000         0.0329498754
p   5 1.0 
    12451.0879550000      2093.6184468688
     4980.4351820000       918.1890284073
     1992.1740730000      1459.1325391631
      796.8696290000      1489.3345987640
      318.7478520000      1436.7756693929
p   1 1.0 
      127.4991410000       610.6947147288
p   1 1.0 
       50.9996560000       194.2670504300
p   1 1.0 
       20.3998630000        61.7979617804
p   1 1.0 
        8.1599450000        19.6584434383
p   1 1.0 
        3.2639780000         6.2535138558
p   1 1.0 
        1.3055910000         1.9892942277
p   1 1.0 
        0.5222360000         0.6328103822
p   1 1.0 
        0.2088950000         0.2013029523
p   1 1.0 
        0.0835580000         0.0640361382
p   1 1.0 
        0.0334230000         0.0203702742
p   1 1.0 
        0.0133690000         0.0064798319
d   4 1.0 
      837.0672260000      3087.2204500310
      304.3880820000      3007.0563312128
      110.6865750000      2778.8369308977
       40.2496640000      1455.8294057635
d   1 1.0 
       14.6362410000       312.2279657221
d   1 1.0 
        5.3222700000        53.1666948838
d   1 1.0 
        1.9353710000         9.0533119406
d   1 1.0 
        0.7037710000         1.5416116227
d   1 1.0 
        0.2559170000         0.2625086217
d   1 1.0 
        0.0930610000         0.0447006239
d   1 1.0 
        0.0338400000         0.0076115517
d   1 1.0 
        0.0123060000         0.0012962079
f   4 1.0 
       22.0128040000       551.2105701769
        7.3376010000       153.4774832704
        2.4458670000        21.6506471485
        0.8152890000         1.5509273827
f   1 1.0 
        0.2717630000         0.3040383153
f   1 1.0 
        0.0905880000         0.0256690083

  2 0
s   6 1.0 
    35479.1004410000         1.9229128581
     5318.4728983000         2.2734773358
     1210.4810975000         3.4747482552
      342.8551814000         5.2879612972
      112.0194318100         7.1666332516
       40.7147402500         7.7556346254
s   1 1.0 
       16.0396781100         5.7122450312
s   1 1.0 
        6.5038186700         2.9025947842
s   1 1.0 
        1.5440477500         0.9872011154
s   1 1.0 
        0.6122345300        -0.4932856223
s   1 1.0 
        0.2402798000         0.2445952611
p   4 1.0 
       80.2339004800         4.2755032106
       18.5940107400         4.7314752302
        5.6867902700         4.0864798013
        1.9511006300         2.2989954518
p   1 1.0 
        0.6697021100         0.8635593126
p   1 1.0 
        0.2165130000         0.2105208234
d   1 1.0 
        3.1070000000        20.7284714039
d   1 1.0 
        0.8550000000         2.1672588463
f   1 1.0 
        1.9170000000        24.6547062912

[5D]
[7F]
[9G]
[MO]
 Sym=     1a
 Ene= -1.49193764305178E+03
 Spin= Alpha
 Occup= 1.000000
  1       0.077686768492
  2       0.091394466671
  3       0.169313963824
  4       0.298569201816
  5       0.348748471651
  6       0.178984813348
  7       0.011504485964
  8       0.003078313440
  9      -0.002233102336
 10       0.001464873900
 11      -0.000988629778
 12       0.000660896771
 13      -0.000432119191
 14       0.000279055317
 15      -0.000173215107
 16       0.000095522137
 17      -0.000042840782
 18       0.000011704199
 19       0.000000347369
 20      -0.000000787933
 21      -0.000000226732
 22      -0.000000217299
 23       0.000000477581
 24       0.000000136557
 25       0.000000193789
 26      -0.000000430046
 27      -0.000000123208
 28      -0.000000197675
 29       0.000000437987
 30       0.000000125468
 31       0.000000267094
 32      -0.000000591780
 33      -0.000000169543
 34      -0.000000395860
 35       0.000000875582
 36       0.000000250779
 37       0.000000686801
 38      -0.000001518774
 39      -0.000000434990
 40      -0.000001206127
 41       0.000002666958
 42       0.000000763835
 43       0.000001606543
 44      -0.000003552349
 45      -0.000001017421
 46      -0.000000523644
 47       0.000001157871
 48       0.000000331623
 49      -0.000000132747
 50       0.000000293513
 51       0.000000084064
 52       0.000000050290
 53      -0.000000111195
 54      -0.000000031847
 55       0.000000040697
 56       0.000000017295
 57      -0.000000039642
 58       0.000000055937
 59       0.000000059923
 60       0.000000007363
 61       0.000000003359
 62      -0.000000006212
 63       0.000000007873
 64       0.000000012280
 65      -0.000000117515
 66      -0.000000050752
 67       0.000000111665
 68      -0.000000154630
 69      -0.000000177546
 70       0.000000261115
 71       0.000000112657
 72      -0.000000248703
 73       0.000000345109
 74       0.000000393570
 75      -0.000000570917
 76      -0.000000246231
 77       0.000000544292
 78      -0.000000755743
 79      -0.000000859800
 80       0.000001029597
 81       0.000000444025
 82      -0.000000981710
 83       0.000001363234
 84       0.000001550368
 85      -0.000000407209
 86      -0.000000175614
 87       0.000000388263
 88      -0.000000539148
 89      -0.000000613186
 90      -0.000000099321
 91      -0.000000042829
 92       0.000000094722
 93      -0.000000131554
 94      -0.000000149527
 95       0.000000038089
 96       0.000000016425
 97      -0.000000036324
 98       0.000000050448
 99       0.000000057343
100      -0.000000074911
101       0.000000036811
102      -0.000000081361
103      -0.000000066886
104      -0.000000076042
105      -0.000000151533
106       0.000000046320
107       0.000000484745
108      -0.000000238188
109       0.000000526663
110       0.000000432933
111       0.000000492281
112       0.000000980801
113      -0.000000299744
114      -0.000000327353
115       0.000000160848
116      -0.000000355655
117      -0.000000292363
118      -0.000000332439
119      -0.000000662337
120       0.000000202427
121       0.000000006723
122      -0.000000043572
123       0.000000125013
124      -0.000000978186
125      -0.000002505054
126      -0.000001139137
127      -0.000000039930
128       0.000000088296
129       0.000000025289
130       0.000000734430
131      -0.000001623962
132      -0.000000465117
133       0.000000556769
134      -0.000001231091
135      -0.000000352594
136      -0.000000065879
137      -0.000000028411
138       0.000000062817
139      -0.000000087233
140      -0.000000099197
141      -0.000000123049
142      -0.000000053063
143       0.000000117340
144      -0.000000162953
145      -0.000000185269
146      -0.000000172259
147       0.000000084640
148      -0.000000187151
149      -0.000000153846
150      -0.000000174936
151      -0.000000348533
152       0.000000106521
 Sym=     1a
 Ene= -2.42978183108116E+02
 Spin= Alpha
 Occup= 1.000000
  1      -0.028254192915
  2      -0.036415407904
  3      -0.068680747666
  4      -0.142825230764
  5      -0.207408376323
  6      -0.102232386176
  7       0.443007696046
  8       0.620745669663
  9       0.115936713247
 10       0.003506625011
 11      -0.002827719755
 12       0.002020754157
 13      -0.001493300955
 14       0.001011762204
 15      -0.000634025586
 16       0.000352196710
 17      -0.000158489860
 18       0.000043381177
 19       0.000014352557
 20      -0.000033682780
 21      -0.000009756221
 22       0.000019472594
 23      -0.000045726755
 24      -0.000013246019
 25       0.000017765894
 26      -0.000041497823
 27      -0.000012008356
 28       0.000007670112
 29      -0.000017589137
 30      -0.000005072824
 31      -0.000000108816
 32       0.000000269205
 33       0.000000078827
 34      -0.000000667119
 35       0.000001438098
 36       0.000000409777
 37       0.000002216970
 38      -0.000004897686
 39      -0.000001402513
 40      -0.000004342761
 41       0.000009597610
 42       0.000002748566
 43       0.000006155385
 44      -0.000013607213
 45      -0.000003897017
 46      -0.000001876428
 47       0.000004147174
 48       0.000001187681
 49      -0.000000535560
 50       0.000001185198
 51       0.000000339509
 52       0.000000198879
 53      -0.000000440067
 54      -0.000000126057
 55       0.000008158211
 56       0.000003473273
 57      -0.000007911062
 58       0.000011120288
 59       0.000012068381
 60       0.000000163322
 61       0.000000071845
 62      -0.000000164853
 63       0.000000231845
 64       0.000000239130
 65       0.000000020261
 66       0.000000008374
 67      -0.000000013211
 68       0.000000015531
 69       0.000000035898
 70       0.000000853730
 71       0.000000368681
 72      -0.000000817821
 73       0.000001136533
 74       0.000001282885
 75      -0.000002099466
 76      -0.000000905730
 77       0.000002002704
 78      -0.000002781052
 79      -0.000003161075
 80       0.000003997464
 81       0.000001723985
 82      -0.000003812419
 83       0.000005294310
 84       0.000006018665
 85      -0.000001499098
 86      -0.000000646565
 87       0.000001429772
 88      -0.000001985543
 89      -0.000002257067
 90      -0.000000385173
 91      -0.000000166068
 92       0.000000367156
 93      -0.000000509864
 94      -0.000000580012
 95       0.000000146192
 96       0.000000063032
 97      -0.000000139358
 98       0.000000193525
 99       0.000000220140
100      -0.000000433507
101       0.000000212354
102      -0.000000462073
103      -0.000000382520
104      -0.000000431207
105      -0.000000865160
106       0.000000270683
107       0.000001965933
108      -0.000000965542
109       0.000002132458
110       0.000001754126
111       0.000001993168
112       0.000003973042
113      -0.000001217057
114      -0.000001261136
115       0.000000619535
116      -0.000001368939
117      -0.000001125712
118      -0.000001279541
119      -0.000002550021
120       0.000000780290
121       0.000000040848
122      -0.000000204478
123       0.000000586587
124      -0.000003890824
125      -0.000009289442
126      -0.000003744391
127      -0.000000209561
128       0.000000463160
129       0.000000132635
130       0.000002801434
131      -0.000006193422
132      -0.000001773751
133       0.000002194244
134      -0.000004851851
135      -0.000001389623
136      -0.000000196079
137      -0.000000084559
138       0.000000187036
139      -0.000000259770
140      -0.000000295173
141      -0.000000586860
142      -0.000000253085
143       0.000000559367
144      -0.000000776689
145      -0.000000883867
146      -0.000000591490
147       0.000000290601
148      -0.000000642597
149      -0.000000528281
150      -0.000000600662
151      -0.000001196709
152       0.000000365836
 Sym=     1a
 Ene= -2.17713069723237E+02
 Spin= Alpha
 Occup= 1.000000
  1      -0.000000030490
  2      -0.000000039023
  3      -0.000000075149
  4      -0.000000150998
  5      -0.000000231347
  6      -0.000000094867
  7       0.000000434133
  8       0.000000743054
  9       0.000000025794
 10       0.000000279230
 11      -0.000000500527
 12       0.000000784822
 13      -0.000001283300
 14       0.000001888927
 15      -0.000001119184
 16      -0.000001428867
 17       0.000000826256
 18      -0.000000195513
 19       0.302082013613
 20       0.090279810265
 21       0.145793573934
 22       0.416729028668
 23       0.124543119690
 24       0.201125587772
 25       0.269650417846
 26       0.080587329315
 27       0.130141132366
 28       0.016151085459
 29       0.004826936390
 30       0.007795005051
 31       0.004675895184
 32       0.001397303159
 33       0.002256666010
 34      -0.003228032814
 35      -0.000964407233
 36      -0.001557800771
 37       0.001910706878
 38       0.000570423819
 39       0.000921892778
 40      -0.001144816247
 41      -0.000340976528
 42      -0.000552005326
 43       0.000666503182
 44       0.000197547547
 45       0.000320943409
 46      -0.000367554170
 47      -0.000110436659
 48      -0.000177654619
 49       0.000176195285
 50       0.000053133823
 51       0.000085248741
 52      -0.000056018068
 53      -0.000016880980
 54      -0.000027097967
 55      -0.000003046592
 56      -0.000001036002
 57      -0.000007340292
 58       0.000009414461
 59      -0.000011233123
 60      -0.000001340609
 61      -0.000000406024
 62      -0.000003208243
 63       0.000004179027
 64      -0.000004870242
 65      -0.000000681089
 66      -0.000000219872
 67      -0.000001513092
 68       0.000001954232
 69      -0.000002415870
 70       0.000000093812
 71       0.000000032082
 72      -0.000000102152
 73       0.000000128763
 74       0.000000110006
 75      -0.000000818367
 76      -0.000000261741
 77      -0.000001196721
 78       0.000001562514
 79      -0.000002446966
 80       0.000001256735
 81       0.000000415336
 82       0.000001430806
 83      -0.000001862407
 84       0.000003496218
 85      -0.000000501496
 86      -0.000000117882
 87      -0.000001565020
 88       0.000002076446
 89      -0.000002002571
 90      -0.000000125678
 91      -0.000000053201
 92       0.000000102172
 93      -0.000000142523
 94      -0.000000199862
 95       0.000000049101
 96       0.000000019398
 97      -0.000000011066
 98       0.000000016986
 99       0.000000095696
100       0.000000666839
101       0.000000133234
102      -0.000000524450
103       0.000000148168
104      -0.000000339687
105      -0.000000391135
106      -0.000001003225
107      -0.000000332077
108      -0.000001078835
109       0.000000915786
110      -0.000001455576
111       0.000000302586
112       0.000001736291
113       0.000002588157
114       0.000000502978
115       0.000000804649
116      -0.000000637224
117       0.000001313298
118      -0.000000132439
119      -0.000001127351
120      -0.000002290826
121      -0.000000006073
122       0.000000028894
123      -0.000000044234
124      -0.000000035531
125       0.000000052303
126       0.000001520202
127       0.000002335405
128       0.000000758616
129       0.000001154116
130      -0.000007868358
131      -0.000002921681
132      -0.000004051013
133       0.000006774844
134       0.000000837560
135       0.000002741890
136      -0.000000560906
137      -0.000000152548
138      -0.000001313152
139       0.000001736421
140      -0.000001972066
141       0.000001934142
142       0.000000510096
143       0.000004858919
144      -0.000006431384
145       0.000007002171
146       0.000000265084
147       0.000000451089
148      -0.000000361795
149       0.000000719033
150      -0.000000081311
151      -0.000000642587
152      -0.000001260038
 Sym=     1a
 Ene= -2.17713069078145E+02
 Spin= Alpha
 Occup= 1.000000
  1       0.000000004451
  2       0.000000005655
  3       0.000000011084
  4       0.000000021573
  5       0.000000034564
  6       0.000000011617
  7      -0.000000055361
  8      -0.000000109498
  9      -0.000000008099
 10      -0.000000073146
 11       0.000000130695
 12      -0.000000203838
 13       0.000000333425
 14      -0.000000490842
 15       0.000000290859
 16       0.000000371282
 17      -0.000000215041
 18       0.000000050897
 19      -0.106155494808
 20      -0.133484070742
 21       0.302609924219
 22      -0.146443932350
 23      -0.184144344977
 24       0.417457319176
 25      -0.094758615701
 26      -0.119153183146
 27       0.270121645601
 28      -0.005675695459
 29      -0.007136865690
 30       0.016179318679
 31      -0.001643166873
 32      -0.002066131133
 33       0.004684026298
 34       0.001134361594
 35       0.001426275675
 36      -0.003233569691
 37      -0.000671424561
 38      -0.000844057747
 39       0.001913843161
 40       0.000402260622
 41       0.000505400585
 42      -0.001146429068
 43      -0.000234158312
 44      -0.000293849380
 45       0.000667120770
 46       0.000129184907
 47       0.000162653546
 48      -0.000368393371
 49      -0.000061934663
 50      -0.000078050201
 51       0.000176662122
 52       0.000019690553
 53       0.000024809800
 54      -0.000056162501
 55      -0.000006495039
 56       0.000006869057
 57      -0.000011270268
 58      -0.000007650297
 59       0.000002084423
 60      -0.000002831498
 61       0.000003048808
 62      -0.000004921489
 63      -0.000003365027
 64       0.000000886491
 65      -0.000001360622
 66       0.000001463962
 67      -0.000002383278
 68      -0.000001605855
 69       0.000000447239
 70      -0.000000046758
 71      -0.000000007887
 72      -0.000000002086
 73      -0.000000044719
 74      -0.000000023543
 75      -0.000001164359
 76       0.000001379954
 77      -0.000002204691
 78      -0.000001403226
 79       0.000000458024
 80       0.000001499067
 81      -0.000001858171
 82       0.000002968762
 83       0.000001808628
 84      -0.000000669268
 85      -0.000001289289
 86       0.000001390943
 87      -0.000002190164
 88      -0.000001569186
 89       0.000000334931
 90       0.000000020412
 91       0.000000025772
 92      -0.000000049022
 93       0.000000028140
 94       0.000000050345
 95       0.000000012067
 96      -0.000000028915
 97       0.000000048320
 98       0.000000013601
 99      -0.000000021624
100       0.000000664078
101       0.000000789702
102      -0.000000467224
103       0.000000332520
104       0.000000363711
105       0.000000044383
106       0.000000702274
107      -0.000001359602
108      -0.000000491963
109       0.000001988388
110      -0.000000939270
111      -0.000002048749
112       0.000000185146
113      -0.000001546172
114       0.000001135247
115       0.000000516197
116      -0.000001686784
117       0.000000756168
118       0.000001644377
119      -0.000000223686
120       0.000001350193
121       0.000000001589
122      -0.000000007567
123       0.000000011591
124       0.000000009169
125      -0.000000013317
126      -0.000000394224
127      -0.000000822906
128      -0.000001056451
129       0.000002359697
130       0.000002785779
131       0.000003707702
132      -0.000008072172
133      -0.000002337623
134      -0.000002512952
135       0.000006390977
136      -0.000001137845
137       0.000001270274
138      -0.000002007106
139      -0.000001382417
140       0.000000344443
141       0.000004153551
142      -0.000004596342
143       0.000007255479
144       0.000005049115
145      -0.000001210058
146       0.000000629425
147       0.000000280595
148      -0.000000929993
149       0.000000419568
150       0.000000913938
151      -0.000000120042
152       0.000000743749
 Sym=     1a
 Ene= -2.17709413710067E+02
 Spin= Alpha
 Occup= 1.000000
  1      -0.000003939128
  2      -0.000005119005
  3      -0.000009507451
  4      -0.000020392695
  5      -0.000028578217
  6      -0.000016022395
  7       0.000072559452
  8       0.000092233397
  9      -0.000006156166
 10      -0.000024836352
 11       0.000043897173
 12      -0.000066579631
 13       0.000109241874
 14      -0.000161271366
 15       0.000095480566
 16       0.000122275709
 17      -0.000070863499
 18       0.000016774853
 19      -0.134677189036
 20       0.307725583023
 21       0.088495918294
 22      -0.185789351070
 23       0.424512549871
 24       0.122081596941
 25      -0.120213140849
 26       0.274676451687
 27       0.078991625402
 28      -0.007193358630
 29       0.016436314898
 30       0.004726764703
 31      -0.002091295486
 32       0.004778100396
 33       0.001374081339
 34       0.001450162300
 35      -0.003312693016
 36      -0.000952638372
 37      -0.000872695825
 38       0.001992506706
 39       0.000572952251
 40       0.000549987029
 41      -0.001253752635
 42      -0.000360452595
 43      -0.000352987020
 44       0.000802416560
 45       0.000230614502
 46       0.000143990005
 47      -0.000330483758
 48      -0.000095092870
 49      -0.000062425476
 50       0.000143835153
 51       0.000041406396
 52       0.000020250695
 53      -0.000046622121
 54      -0.000013419978
 55       0.000006960622
 56       0.000002948829
 57      -0.000006814688
 58       0.000009602739
 59       0.000010218900
 60       0.000002580673
 61       0.000001100298
 62      -0.000002506585
 63       0.000003517680
 64       0.000003817750
 65       0.000004624713
 66       0.000001984435
 67      -0.000004433749
 68       0.000006174321
 69       0.000006925828
 70      -0.000007694485
 71      -0.000003317989
 72       0.000007333445
 73      -0.000010182430
 74      -0.000011589395
 75       0.000019550222
 76       0.000008425516
 77      -0.000018657043
 78       0.000025922553
 79       0.000029413262
 80      -0.000040116246
 81      -0.000017293483
 82       0.000038270503
 83      -0.000053163056
 84      -0.000060375017
 85      -0.000009392924
 86      -0.000004055538
 87       0.000008942867
 88      -0.000012406078
 89      -0.000014164777
 90       0.000010301800
 91       0.000004442629
 92      -0.000009823319
 93       0.000013641729
 94       0.000015511437
 95      -0.000003286061
 96      -0.000001417038
 97       0.000003133635
 98      -0.000004351897
 99      -0.000004947511
100       0.000003368323
101      -0.000001645224
102       0.000003645869
103       0.000003013987
104       0.000003402342
105       0.000006785258
106      -0.000002118435
107      -0.000020518332
108       0.000010069954
109      -0.000022291096
110      -0.000018343953
111      -0.000020828009
112      -0.000041496921
113       0.000012728294
114       0.000004015834
115      -0.000001963469
116       0.000004358513
117       0.000003599055
118       0.000004068894
119       0.000008107233
120      -0.000002515266
121       0.000000525396
122      -0.000002504734
123       0.000003840553
124       0.000002980432
125      -0.000004382240
126      -0.000129619856
127       0.000000999906
128      -0.000002132097
129      -0.000000607796
130      -0.000015811054
131       0.000034691999
132       0.000009926440
133      -0.000043269204
134       0.000095884424
135       0.000027469944
136       0.000000645028
137       0.000000273781
138      -0.000000627149
139       0.000000882791
140       0.000000951673
141       0.000006284007
142       0.000002725831
143      -0.000005948279
144       0.000008217414
145       0.000009532721
146       0.000003072868
147      -0.000001504871
148       0.000003335903
149       0.000002750502
150       0.000003115681
151       0.000006207855
152      -0.000001916549
 Sym=     1a
 Ene= -5.40076410537128E+01
 Spin= Alpha
 Occup= 1.000000
  1      -0.012935550395
  2      -0.016860341170
  3      -0.032139435955
  4      -0.067816917465
  5      -0.104268812967
  6      -0.049699903032
  7       0.320856578219
  8       0.691773330944
  9      -0.297109414103
 10      -0.954478012384
 11      -0.099174062332
 12      -0.025860557099
 13       0.017622716745
 14      -0.012089033335
 15       0.007826526112
 16      -0.004373829020
 17       0.001977328106
 18      -0.000542664013
 19       0.000113475840
 20      -0.000262091472
 21      -0.000075689191
 22       0.000171689572
 23      -0.000396755743
 24      -0.000114590409
 25       0.000045512394
 26      -0.000104536408
 27      -0.000030155433
 28      -0.000436816846
 29       0.001009287931
 30       0.000291491932
 31      -0.000329945925
 32       0.000759879034
 33       0.000219323223
 34       0.000089711197
 35      -0.000204099353
 36      -0.000058773824
 37      -0.000059435363
 38       0.000133882550
 39       0.000038481016
 40       0.000073968075
 41      -0.000164948036
 42      -0.000047319556
 43      -0.000087788591
 44       0.000194940328
 45       0.000055878499
 46       0.000030595387
 47      -0.000068103561
 48      -0.000019530111
 49       0.000003523847
 50      -0.000007573348
 51      -0.000002157009
 52      -0.000001481369
 53       0.000003206083
 54       0.000000914413
 55      -0.000090351365
 56      -0.000038515381
 57       0.000088003801
 58      -0.000123967032
 59      -0.000133276042
 60      -0.000168862208
 61      -0.000071982757
 62       0.000163972519
 63      -0.000230616472
 64      -0.000249651451
 65      -0.000014699813
 66      -0.000006231258
 67       0.000014376972
 68      -0.000020355690
 69      -0.000021548554
 70      -0.000001014161
 71      -0.000000499710
 72       0.000000730855
 73      -0.000000799646
 74      -0.000001879677
 75       0.000023900447
 76       0.000010319698
 77      -0.000022744856
 78       0.000031534054
 79       0.000036061733
 80      -0.000048696160
 81      -0.000021009965
 82       0.000046406269
 83      -0.000064416728
 84      -0.000073367768
 85       0.000019007404
 86       0.000008200607
 87      -0.000018109951
 88       0.000025135601
 89       0.000028641464
 90       0.000004904957
 91       0.000002113387
 92      -0.000004683628
 93       0.000006510467
 94       0.000007375348
 95      -0.000001861982
 96      -0.000000802339
 97       0.000001777707
 98      -0.000002470854
 99      -0.000002800165
100       0.000000083103
101      -0.000000034011
102       0.000000167643
103       0.000000134169
104       0.000000175616
105       0.000000267413
106      -0.000000055225
107      -0.000022480866
108       0.000011046342
109      -0.000024455494
110      -0.000020099782
111      -0.000022863520
112      -0.000045525870
113       0.000013896994
114       0.000015441903
115      -0.000007587360
116       0.000016787775
117       0.000013799153
118       0.000015693289
119       0.000031257453
120      -0.000009548324
121      -0.000000281231
122       0.000002977431
123      -0.000007759575
124       0.000049551406
125       0.000117194408
126       0.000046063227
127       0.000002672223
128      -0.000005907217
129      -0.000001691551
130      -0.000036090056
131       0.000079804897
132       0.000022856919
133      -0.000028230183
134       0.000062423584
135       0.000017878032
136       0.000001729675
137       0.000000745985
138      -0.000001649533
139       0.000002290095
140       0.000002604679
141       0.000009064548
142       0.000003908764
143      -0.000008643517
144       0.000012005151
145       0.000013647129
146       0.000006307992
147      -0.000003099583
148       0.000006853382
149       0.000005633729
150       0.000006406127
151       0.000012763173
152      -0.000003900274
 Sym=     1a
 Ene= -4.57405857415379E+01
 Spin= Alpha
 Occup= 1.000000
  1      -0.000000079715
  2      -0.000000104589
  3      -0.000000195656
  4      -0.000000425757
  5      -0.000000624183
  6      -0.000000355029
  7       0.000002116907
  8       0.000003873651
  9      -0.000000763194
 10      -0.000008021458
 11       0.000002801971
 12      -0.000006045632
 13       0.000010332648
 14      -0.000015381306
 15       0.000009208120
 16       0.000011950554
 17      -0.000006905252
 18       0.000001634860
 19       0.149486345907
 20       0.038943190727
 21       0.091879551173
 22       0.234192020732
 23       0.061010065727
 24       0.143942586898
 25       0.022455617249
 26       0.005850340073
 27       0.013802187037
 28      -0.573222391303
 29      -0.149332493918
 30      -0.352322789483
 31      -0.339301908355
 32      -0.088392199861
 33      -0.208546608444
 34       0.012427501252
 35       0.003235465453
 36       0.007637336856
 37      -0.015077705142
 38      -0.003923719082
 39      -0.009265155048
 40       0.008878802814
 41       0.002303809702
 42       0.005452559723
 43      -0.005166702204
 44      -0.001332620800
 45      -0.003168884770
 46       0.002863307914
 47       0.000750853855
 48       0.001762375444
 49      -0.001376087925
 50      -0.000362430839
 51      -0.000847781971
 52       0.000438156943
 53       0.000115301391
 54       0.000269890106
 55       0.000094236178
 56       0.000006677154
 57       0.000212430103
 58      -0.000213932635
 59       0.000273747750
 60       0.000121810678
 61       0.000008497043
 62       0.000275095215
 63      -0.000277129684
 64       0.000354162627
 65       0.000009355490
 66       0.000000755017
 67       0.000021671884
 68      -0.000021848503
 69       0.000027128115
 70      -0.000015583507
 71      -0.000000983613
 72      -0.000033091482
 73       0.000033518149
 74      -0.000044001535
 75       0.000010154871
 76       0.000000965107
 77       0.000017076759
 78      -0.000017051791
 79       0.000026454804
 80      -0.000013278054
 81      -0.000001895365
 82      -0.000017540036
 83       0.000016826312
 84      -0.000032573900
 85       0.000005564810
 86      -0.000000273002
 87       0.000015632818
 88      -0.000016511165
 89       0.000017075582
 90       0.000000830724
 91       0.000000422965
 92      -0.000001355954
 93       0.000001732955
 94       0.000001004680
 95      -0.000000349055
 96      -0.000000136174
 97       0.000000241834
 98      -0.000000354642
 99      -0.000000558924
100      -0.000079668193
101      -0.000003353708