[Molden Format]
[Title]
 Molden file created by orca_2mkl for BaseName=/home/smirnovaanastasia2304_2125/_scratch/O2_cc/Er_O2_cc

[Atoms] AU
Er   1  68         -0.2816787981        -0.3968519368        -1.5800529329 
O    2   8         -1.3562791230         2.5373674054        -0.6019136785 
O    3   8          2.8128932551        -0.4789057352        -0.6960201502 
[GTO]
  1 0
s   6 1.0 
  1280982.1879360001      2520.6148364459
   569325.4168600000      -681.3957563930
   253033.5186050000      1460.6740705580
   112459.3416020000       312.1436294738
    49981.9296010000       863.9077130156
    22214.1909340000       629.2071075609
s   1 1.0 
     9872.9737480000       705.9047087998
s   1 1.0 
     4387.9883330000       384.2458541670
s   1 1.0 
     1950.2170370000       209.1569507843
s   1 1.0 
      866.7631270000       113.8506234070
s   1 1.0 
      385.2280570000        61.9724298993
s   1 1.0 
      171.2124700000        33.7335181159
s   1 1.0 
       76.0944310000        18.3622014494
s   1 1.0 
       33.8197470000         9.9951164432
s   1 1.0 
       15.0309990000         5.4406523584
s   1 1.0 
        6.6804440000         2.9615160324
s   1 1.0 
        2.9690860000         1.6120450527
s   1 1.0 
        1.3195940000         0.8774862934
s   1 1.0 
        0.5864860000         0.4776429032
s   1 1.0 
        0.2606610000         0.2599962805
s   1 1.0 
        0.1158490000         0.1415237440
s   1 1.0 
        0.0514880000         0.0770352700
s   1 1.0 
        0.0228840000         0.0419333005
p   5 1.0 
    17602.8164910000      4022.4508342837
     7041.1265960000      1545.5382950479
     2816.4506390000      2442.5227289582
     1126.5802550000      2329.4326719729
      450.6321020000      2190.8967379529
p   1 1.0 
      180.2528410000       941.4401934414
p   1 1.0 
       72.1011360000       299.4799294147
p   1 1.0 
       28.8404550000        95.2670511641
p   1 1.0 
       11.5361820000        30.3052388827
p   1 1.0 
        4.6144730000         9.6403482870
p   1 1.0 
        1.8457890000         3.0666743077
p   1 1.0 
        0.7383160000         0.9755351853
p   1 1.0 
        0.2953260000         0.3103253057
p   1 1.0 
        0.1181310000         0.0987176796
p   1 1.0 
        0.0472520000         0.0314025801
p   1 1.0 
        0.0189010000         0.0099895532
d   4 1.0 
     1280.6903600000      6403.7653961462
      465.7055860000      6055.6208623721
      169.3474860000      5668.4317575873
       61.5809040000      3092.7344183634
d   1 1.0 
       22.3930560000       657.1559952900
d   1 1.0 
        8.1429290000       111.9015797720
d   1 1.0 
        2.9610650000        19.0547818108
d   1 1.0 
        1.0767510000         3.2446796886
d   1 1.0 
        0.3915460000         0.5525097787
d   1 1.0 
        0.1423800000         0.0940818424
d   1 1.0 
        0.0517750000         0.0160206551
d   1 1.0 
        0.0188270000         0.0027279540
f   4 1.0 
       37.3757410000      2115.7106758334
       12.4585800000       583.6684471563
        4.1528600000        72.9133455825
        1.3842870000         4.2858523755
f   1 1.0 
        0.4614290000         1.0005437237
f   1 1.0 
        0.1538100000         0.0844725037

  2 0
s   6 1.0 
    27032.3826310000         1.4645050749
     4052.3871392000         1.8244031008
      922.3272271000         2.8547160967
      261.2407098900         4.3654874290
       85.3546413500         5.8940772662
       31.0350352400         6.2963020147
s   1 1.0 
       12.2608607300         4.6698272139
s   1 1.0 
        4.9987076000         2.3826123703
s   1 1.0 
        1.1703108200         0.8019291632
s   1 1.0 
        0.4647474100        -0.4011648063
s   1 1.0 
        0.1850453600         0.2010799377
p   4 1.0 
       63.2749548000         3.0898340730
       14.6270493800         3.3923831935
        4.4501223500         2.9482801524
        1.5275799600         1.7113350234
p   1 1.0 
        0.5293511800         0.6436057935
p   1 1.0 
        0.1747842100         0.1610897223
d   1 1.0 
        2.3140000000        12.3767310624
d   1 1.0 
        0.6450000000         1.3234257612
f   1 1.0 
        1.4280000000        12.7097950062

  3 0
s   6 1.0 
    27032.3826310000         1.4645050749
     4052.3871392000         1.8244031008
      922.3272271000         2.8547160967
      261.2407098900         4.3654874290
       85.3546413500         5.8940772662
       31.0350352400         6.2963020147
s   1 1.0 
       12.2608607300         4.6698272139
s   1 1.0 
        4.9987076000         2.3826123703
s   1 1.0 
        1.1703108200         0.8019291632
s   1 1.0 
        0.4647474100        -0.4011648063
s   1 1.0 
        0.1850453600         0.2010799377
p   4 1.0 
       63.2749548000         3.0898340730
       14.6270493800         3.3923831935
        4.4501223500         2.9482801524
        1.5275799600         1.7113350234
p   1 1.0 
        0.5293511800         0.6436057935
p   1 1.0 
        0.1747842100         0.1610897223
d   1 1.0 
        2.3140000000        12.3767310624
d   1 1.0 
        0.6450000000         1.3234257612
f   1 1.0 
        1.4280000000        12.7097950062

[5D]
[7F]
[9G]
[MO]
 Sym=     1a
 Ene= -2.12018147468887E+03
 Spin= Alpha
 Occup= 1.000000
  1      -0.093918954773
  2      -0.102779366160
  3      -0.177281001876
  4      -0.300654317356
  5      -0.335097509834
  6      -0.167597915879
  7      -0.009243743417
  8      -0.003356640932
  9       0.002444152586
 10      -0.001618695646
 11       0.001089035326
 12      -0.000732373559
 13       0.000489219165
 14      -0.000330604247
 15       0.000239239974
 16      -0.000206811267
 17       0.000050869082
 18      -0.000011906750
 19       0.000000416256
 20       0.000000611187
 21       0.000000393911
 22      -0.000000590734
 23      -0.000000784519
 24      -0.000000522694
 25       0.000000414036
 26       0.000000555279
 27       0.000000368706
 28      -0.000000473987
 29      -0.000000621094
 30      -0.000000415646
 31       0.000000651166
 32       0.000000842747
 33       0.000000566375
 34      -0.000000982423
 35      -0.000001275635
 36      -0.000000856345
 37       0.000001584823
 38       0.000002131239
 39       0.000001413911
 40      -0.000002303607
 41      -0.000003554659
 42      -0.000002257219
 43       0.000002809975
 44       0.000005621560
 45       0.000003321945
 46      -0.000025688348
 47      -0.000033932977
 48      -0.000022647313
 49       0.000003407408
 50       0.000004387959
 51       0.000002954033
 52      -0.000000574717
 53      -0.000000702650
 54      -0.000000481683
 55       0.000000015058
 56      -0.000000006965
 57      -0.000000011025
 58      -0.000000002018
 59       0.000000008592
 60      -0.000000152892
 61       0.000000051439
 62       0.000000081735
 63       0.000000045489
 64      -0.000000127507
 65       0.000000388754
 66      -0.000000138045
 67      -0.000000217027
 68      -0.000000112097
 69       0.000000308504
 70      -0.000000812421
 71       0.000000284972
 72       0.000000456652
 73       0.000000226228
 74      -0.000000646984
 75       0.000001553351
 76      -0.000000509623
 77      -0.000000896158
 78      -0.000000359861
 79       0.000001267391
 80      -0.000002491006
 81       0.000000648084
 82       0.000001511524
 83       0.000000277608
 84      -0.000002201754
 85       0.000015504458
 86      -0.000005708607
 87      -0.000008845998
 88      -0.000004450787
 89       0.000011915738
 90      -0.000000795297
 91       0.000000386672
 92       0.000000567642
 93       0.000000178762
 94      -0.000000418349
 95      -0.000000029246
 96      -0.000000012415
 97      -0.000000003973
 98       0.000000010244
 99      -0.000000065354
100       0.000000143599
101       0.000000050630
102       0.000000060794
103      -0.000000015614
104       0.000000084905
105       0.000000267655
106      -0.000000086047
107      -0.000000791495
108      -0.000000228652
109      -0.000000372242
110      -0.000000013727
111      -0.000000518040
112      -0.000001479240
113       0.000000517302
114       0.000004890434
115       0.000001730920
116       0.000002006312
117      -0.000000619319
118       0.000002683717
119       0.000008913451
120      -0.000002764245
121      -0.000000134933
122       0.000000598687
123      -0.000001072166
124       0.000004297873
125       0.000015186261
126       0.000055834926
127      -0.000000121660
128       0.000000337320
129       0.000000113005
130      -0.000001021739
131       0.000002551488
132       0.000000824589
133       0.000006078894
134      -0.000018438952
135      -0.000006347184
136       0.000000255881
137       0.000000077031
138      -0.000000307492
139       0.000000349562
140       0.000000313178
141      -0.000000243647
142       0.000000015465
143       0.000000247505
144      -0.000000166945
145      -0.000000213246
146       0.000000464340
147      -0.000000180452
148       0.000000414564
149       0.000000499069
150       0.000000459573
151       0.000000792143
152      -0.000000374369
153      -0.000000134939
154       0.000000588419
155      -0.000001015181
156       0.000003853271
157       0.000015018054
158       0.000058607408
159       0.000000545397
160      -0.000000016428
161       0.000000154935
162       0.000002157915
163      -0.000000124577
164       0.000000586663
165      -0.000020078391
166      -0.000000162515
167      -0.000006043169
168       0.000000283488
169      -0.000000305140
170      -0.000000025619
171      -0.000000503335
172       0.000000047341
173      -0.000000495858
174       0.000000473672
175       0.000000084052
176       0.000000756229
177      -0.000000134764
178       0.000000531393
179       0.000000615361
180      -0.000000046179
181      -0.000000762746
182       0.000000075128
183       0.000001086617
184      -0.000000173826
 Sym=     1a
 Ene= -3.61842119645145E+02
 Spin= Alpha
 Occup= 1.000000
  1      -0.035698291834
  2      -0.043192621645
  3      -0.075345887308
  4      -0.150784412454
  5      -0.203025948418
  6      -0.070358777857
  7       0.484967508156
  8       0.589818253453
  9       0.087302983395
 10       0.004633090526
 11      -0.004102256327
 12       0.002902904342
 13      -0.002073473972
 14       0.001448876881
 15      -0.001059715658
 16       0.000920961785
 17      -0.000226110870
 18       0.000052954588
 19       0.000013340008
 20       0.000014865658
 21       0.000010554396
 22       0.000018284420
 23       0.000020214068
 24       0.000014394842
 25       0.000013444136
 26       0.000014634904
 27       0.000010483582
 28      -0.000000057443
 29      -0.000000343951
 30      -0.000000165975
 31      -0.000000629972
 32      -0.000000863045
 33      -0.000000569397
 34       0.000003447948
 35       0.000004519166
 36       0.000003024254
 37      -0.000006373517
 38      -0.000008644449
 39      -0.000005718762
 40       0.000009926453
 41       0.000015454447
 42       0.000009787194
 43      -0.000013189807
 44      -0.000025920893
 45      -0.000015386762
 46       0.000114974503
 47       0.000151828541
 48       0.000101342909
 49      -0.000015256500
 50      -0.000019639297
 51      -0.000013223194
 52       0.000002577503
 53       0.000003151371
 54       0.000002160313
 55      -0.000002179149
 56       0.000001220751
 57       0.000001745935
 58       0.000000335564
 59      -0.000000869979
 60       0.000001209460
 61      -0.000000698096
 62      -0.000001020732
 63      -0.000000184878
 64       0.000000391952
 65      -0.000002112340
 66       0.000000907480
 67       0.000001382051
 68       0.000000510518
 69      -0.000001344618
 70       0.000003791035
 71      -0.000001442160
 72      -0.000002278925
 73      -0.000000980670
 74       0.000002780366
 75      -0.000007195342
 76       0.000002392571
 77       0.000004185092
 78       0.000001656732
 79      -0.000005808175
 80       0.000011813762
 81      -0.000003158739
 82      -0.000007134850
 83      -0.000001462146
 84       0.000010354232
 85      -0.000069528343
 86       0.000025602991
 87       0.000039660518
 88       0.000019974863
 89      -0.000053436303
 90       0.000003578002
 91      -0.000001756570
 92      -0.000002574066
 93      -0.000000795731
 94       0.000001847463
 95       0.000000120046
 96       0.000000065220
 97       0.000000031263
 98      -0.000000046302
 99       0.000000296072
100      -0.000000789039
101      -0.000000265565
102      -0.000000313851
103       0.000000071869
104      -0.000000389445
105      -0.000001365032
106       0.000000434000
107       0.000003962654
108       0.000001177338
109       0.000001826512
110      -0.000000004557
111       0.000002519824
112       0.000007356831
113      -0.000002535579
114      -0.000022006629
115      -0.000007793910
116      -0.000009028207
117       0.000002794940
118      -0.000012082583
119      -0.000040122257
120       0.000012441125
121       0.000000529056
122      -0.000002492262
123       0.000004698764
124      -0.000019615999
125      -0.000068430469
126      -0.000249505521
127       0.000000506064
128      -0.000001329116
129      -0.000000437323
130       0.000004761642
131      -0.000012033174
132      -0.000003905843
133      -0.000027050460
134       0.000082302890
135       0.000028355533
136      -0.000001123722
137      -0.000000339157
138       0.000001340396
139      -0.000001522269
140      -0.000001382824
141       0.000000893154
142      -0.000000154431
143      -0.000000825055
144       0.000000384372
145       0.000000708869
146      -0.000001974444
147       0.000000782444
148      -0.000001778361
149      -0.000002114569
150      -0.000001966669
151      -0.000003394911
152       0.000001566847
153       0.000000524045
154      -0.000002423974
155       0.000004410998
156      -0.000017624598
157      -0.000067755046
158      -0.000261939055
159      -0.000002263995
160       0.000000094699
161      -0.000000631434
162      -0.000010381278
163       0.000000542010
164      -0.000002847646
165       0.000089618072
166       0.000000805361
167       0.000027008503
168      -0.000001257131
169       0.000001345667
170       0.000000108591
171       0.000002230345
172      -0.000000222725
173       0.000002006012
174      -0.000001839754
175      -0.000000367796
176      -0.000002932060
177       0.000000625582
178      -0.000002283776
179      -0.000002664364
180       0.000000207284
181       0.000003278453
182      -0.000000335553
183      -0.000004680268
184       0.000000782229
 Sym=     1a
 Ene= -3.20909245170739E+02
 Spin= Alpha
 Occup= 1.000000
  1       0.000000204014
  2       0.000000246381
  3       0.000000436082
  4       0.000000855479
  5       0.000001204914
  6       0.000000290410
  7      -0.000002841177
  8      -0.000003433443
  9       0.000000051585
 10      -0.000000753968
 11       0.000001183438
 12      -0.000000820072
 13      -0.000003650009
 14       0.000021251276
 15      -0.000049865153
 16       0.000066106431
 17      -0.000002687559
 18      -0.000000255969
 19       0.289818212864
 20      -0.213633833457
 21      -0.004258004647
 22       0.385997155456
 23      -0.284530327156
 24      -0.005671091929
 25       0.242176392317
 26      -0.178515293375
 27      -0.003557940203
 28       0.011473476993
 29      -0.008458100118
 30      -0.000168683016
 31       0.004582222302
 32      -0.003376512460
 33      -0.000067079334
 34      -0.003152005120
 35       0.002321435970
 36       0.000045876381
 37       0.001921456027
 38      -0.001413699914
 39      -0.000027817517
 40      -0.001204774649
 41       0.000888293205
 42       0.000019001779
 43       0.000746866319
 44      -0.000561343692
 45      -0.000016999924
 46      -0.000437536312
 47       0.000355653483
 48       0.000022088192
 49       0.000157973912
 50      -0.000121497017
 51      -0.000004446128
 52      -0.000048624411
 53       0.000036912420
 54       0.000001128069
 55      -0.000000489578
 56       0.000003196258
 57      -0.000002460969
 58       0.000007490632
 59       0.000001551174
 60       0.000000094944
 61       0.000000002639
 62       0.000000008790
 63      -0.000000087791
 64       0.000000214924
 65       0.000000012959
 66      -0.000003743129
 67       0.000002827327
 68      -0.000008291018
 69      -0.000002944422
 70      -0.000000080444
 71       0.000009304717
 72      -0.000007086972
 73       0.000020715058
 74       0.000007216542
 75      -0.000000605333
 76      -0.000018624494
 77       0.000014892518
 78      -0.000041952320
 79      -0.000015197671
 80       0.000004313385
 81       0.000025788563
 82      -0.000023679612
 83       0.000060086259
 84       0.000024609611
 85      -0.000010479655
 86      -0.000011489921
 87       0.000018140313
 88      -0.000031737253
 89      -0.000019814734
 90       0.000000964532
 91      -0.000008735435
 92       0.000005820166
 93      -0.000018900309
 94      -0.000005792865
 95      -0.000000192382
 96       0.000003264475
 97      -0.000002349217
 98       0.000007190906
 99       0.000002335641
100      -0.000000193110
101       0.000002232022
102      -0.000001563036
103      -0.000003599324
104      -0.000001367540
105       0.000000056525
106       0.000000711306
107       0.000002944117
108      -0.000012925632
109       0.000010279440
110       0.000019824556
111       0.000008548971
112       0.000003442894
113      -0.000003191312
114      -0.000004302470
115       0.000006730383
116      -0.000007257037
117      -0.000006839210
118      -0.000004924670
119      -0.000008245156
120      -0.000001813321
121      -0.000000308867
122       0.000001574993
123      -0.000002580777
124      -0.000020767360
125      -0.000104602259
126      -0.000162387998
127       0.000001833040
128      -0.000003008669
129      -0.000000757124
130       0.000016485326
131      -0.000058399937
132      -0.000021068191
133      -0.000005368936
134       0.000046860008
135       0.000019324344
136      -0.000004136557
137      -0.000001641373
138       0.000005029854
139      -0.000006222648
140      -0.000005521803
141       0.000001634963
142       0.000000358514
143       0.000002076571
144      -0.000003237712
145       0.000004292315
146      -0.000008957246
147       0.000003009982
148      -0.000007571027
149      -0.000009312492
150      -0.000008345173
151      -0.000014729131
152       0.000007442426
153       0.000000703054
154      -0.000003686830
155       0.000007217082
156       0.000003224425
157       0.000076249965
158       0.000096691611
159       0.000007217305
160      -0.000000724766
161       0.000001853269
162       0.000047669536
163       0.000003672262
164       0.000015647205
165      -0.000025061616
166      -0.000010044095
167      -0.000011685480
168       0.000004736694
169      -0.000005607422
170      -0.000000100397
171      -0.000009442956
172       0.000000369256
173      -0.000005892575
174       0.000003981769
175      -0.000000960947
176       0.000009648376
177      -0.000005238976
178       0.000010492711
179       0.000010675765
180      -0.000000309517
181      -0.000014505160
182       0.000000632336
183       0.000020374367
184      -0.000001399260
 Sym=     1a
 Ene= -3.20909103960892E+02
 Spin= Alpha
 Occup= 1.000000
  1       0.000002261943
  2       0.000002676306
  3       0.000004978770
  4       0.000008887225
  5       0.000014670023
  6      -0.000000126353
  7      -0.000022053563
  8      -0.000044902064
  9       0.000005055820
 10      -0.000039611852
 11       0.000073880937
 12      -0.000111253798
 13       0.000161213408
 14      -0.000194463885
 15       0.000147607160
 16      -0.000085575460
 17      -0.000036674784
 18       0.000012735022
 19       0.189915091634
 20       0.254250409155
 21       0.170119795289
 22       0.252940891409
 23       0.338626821779
 24       0.226576307893
 25       0.158695485633
 26       0.212454457185
 27       0.142154079743
 28       0.007520562256
 29       0.010069070942
 30       0.006737091549
 31       0.002998305034
 32       0.004012428673
 33       0.002685031969
 34      -0.002057400129
 35      -0.002751706373
 36      -0.001841695192
 37       0.001244212611
 38       0.001662522143
 39       0.001112987387
 40      -0.000760733342
 41      -0.001021515984
 42      -0.000682626113
 43       0.000447156673
 44       0.000622247269
 45       0.000410888349
 46      -0.000230827273
 47      -0.000382499468
 48      -0.000239318114
 49       0.000100961018
 50       0.000145885374
 51       0.000095228049
 52      -0.000032079891
 53      -0.000045139980
 54      -0.000029722131
 55      -0.000002281395
 56       0.000004628883
 57       0.000005682488
 58      -0.000001025178
 59       0.000005831034
 60       0.000000167717
 61      -0.000000980138
 62      -0.000001161856
 63       0.000000363706
 64      -0.000001712072
 65       0.000002951869
 66      -0.000001542418
 67      -0.000002367715
 68      -0.000000429392
 69       0.000001257866
 70      -0.000007114969
 71       0.000003812721
 72       0.000005800231
 73       0.000001012474
 74      -0.000002847475
 75       0.000013641117
 76      -0.000007282821
 77      -0.000012296883
 78      -0.000000277440
 79       0.000004753809
 80      -0.000016180936
 81       0.000007461124
 82       0.000019032377
 83      -0.000007208607
 84      -0.000004340491
 85       0.000007340989
 86       0.000001866041
 87      -0.000018096284
 88       0.000022508805
 89       0.000002679029
 90       0.000005206019
 91      -0.000006151199
 92      -0.000006967855
 93      -0.000000861564
 94      -0.000003930916
 95      -0.000002232176
 96       0.000001941972
 97       0.000002488663
 98       0.000000254582
 99       0.000000482102
100       0.000002421081
101       0.000000707279
102       0.000000819219
103      -0.000000033529
104       0.000000656267
105       0.000003384684
106      -0.000001108692
107      -0.000012560880
108      -0.000002174313
109      -0.000004552810
110      -0.000002373174
111      -0.000002471679
112      -0.000014859328
113       0.000005624900
114       0.000006818237
115      -0.000001271650
116       0.000002909194
117       0.000006106453
118      -0.000000169552
119       0.000003211982
120      -0.000003399463
121       0.000000541838
122      -0.000002736243
123       0.000004998161
124       0.000005826278
125       0.000059934174
126       0.000111467790
127       0.000000645656
128       0.000004107306
129       0.000002017042
130      -0.000022811879
131       0.000033655194
132       0.000008058217
133       0.000030994492
134      -0.000029299962
135      -0.000003682515
136       0.000002863477
137       0.000001363485
138      -0.000004211467
139       0.000005554977
140       0.000003659602
141       0.000000613413
142       0.000000773346
143       0.000005787998
144      -0.000007460899
145       0.000005630596
146       0.000007516216
147      -0.000001388129
148       0.000005171190
149       0.000008448252
150       0.000006143819
151       0.000010384935
152      -0.000008183112
153       0.000000919582
154      -0.000004740857
155       0.000009317911
156      -0.000009432545
157       0.000035652367
158       0.000044484997
159       0.000007165403
160       0.000001709256
161       0.000002894953
162       0.000028912137
163      -0.000011164080
164       0.000003615730
165      -0.000015793117
166       0.000018556530
167       0.000003571886
168       0.000003742061
169      -0.000004699188
170      -0.000000012141
171      -0.000007871846
172      -0.000000021332
173      -0.000003940796
174       0.000009906482
175       0.000002239458
176       0.000010900240
177       0.000007720743
178       0.000008767611
179       0.000008446845
180       0.000000048993
181      -0.000011959607
182       0.000000536525
183       0.000017080289
184      -0.000000588714
 Sym=     1a
 Ene= -3.20908540059562E+02
 Spin= Alpha
 Occup= 1.000000
  1       0.000000007400
  2       0.000000008769
  3       0.000000016264
  4       0.000000029220
  5       0.000000047754
  6       0.000000000162
  7      -0.000000075704
  8      -0.000000142336
  9       0.000000014875
 10      -0.000000123575
 11       0.000000227049
 12      -0.000000332929
 13       0.000000434773
 14      -0.000000357776
 15      -0.000000061934
 16       0.000000403830
 17      -0.000000133692
 18       0.000000034660
 19       0.097926939858
 20       0.139173469114
 21      -0.317321771649
 22       0.130425023010
 23       0.185359647200
 24      -0.422628328863
 25       0.081828097740
 26       0.116293810853
 27      -0.265155133258
 28       0.003880411528
 29       0.005515091581
 30      -0.012574525185
 31       0.001541782509
 32       0.002190751397
 33      -0.004995231930
 34      -0.001054432569
 35      -0.001497870922
 36       0.003415577902
 37       0.000631285907
 38       0.000896020347
 39      -0.002043606239
 40      -0.000378792897
 41      -0.000536493215
 42       0.001224350263
 43       0.000223025870
 44       0.000315011425
 45      -0.000719666903
 46      -0.000124114015
 47      -0.000174737982
 48       0.000400037266
 49       0.000055902953
 50       0.000079597874
 51      -0.000181494291
 52      -0.000017824059
 53      -0.000025419101
 54       0.000057925596
 55      -0.000005827492
 56      -0.000003218764
 57      -0.000003241886
 58      -0.000000748829
 59       0.000003321642
 60       0.000001698023
 61       0.000000887436
 62       0.000000983471
 63       0.000000276803
 64      -0.000000947931
 65       0.000000994609
 66       0.000000366361
 67       0.000000668215
 68       0.000000142731
 69      -0.000000547925
 70      -0.000002036234
 71      -0.000000810928
 72      -0.000001321706
 73      -0.000000206114
 74       0.000001150478
 75       0.000004865784
 76       0.000002075891
 77       0.000003093356
 78       0.000000523964
 79      -0.000002765929
 80      -0.000008521559
 81      -0.000003946770
 82      -0.000005298556
 83      -0.000000962905
 84       0.000004914541
 85       0.000004894232
 86       0.000002589295
 87       0.000002963715
 88       0.000000512651
 89      -0.000002980593
 90       0.000004702989
 91       0.000002123671
 92       0.000002911350
 93       0.000000708639
 94      -0.000002619401
 95      -0.000001361406
 96      -0.000000609658
 97      -0.000000845001
 98      -0.000000185936
 99       0.000000762957
100      -0.000000721598
101       0.000000477823
102       0.000000703990
103       0.000000256689
104      -0.000000773986
105       0.000000380798
106      -0.000000089782
107       0.000005462347
108      -0.000004026966
109      -0.000005688543
110      -0.000002099054
111       0.000005675809
112      -0.000002631612
113       0.000000524450
114      -0.000004119706
115       0.000003036616
116       0.000004232969
117       0.000001714623
118      -0.000004220776
119       0.000001899966
120      -0.000000382254
121      -0.000000001480
122       0.000000007626
123      -0.000000011013
124      -0.000000187990
125      -0.000000858661
126      -0.000001279895
127       0.000000686226
128       0.000000972914
129      -0.000002241730
130      -0.000003240199
131      -0.000005440612
132       0.000011034274
133       0.000004638803
134       0.000007220800
135      -0.000015291984
136       0.000000627577
137      -0.000000568040
138       0.000001028150
139       0.000000598960
140      -0.000000193001
141      -0.000006597293
142       0.000005398472
143      -0.000009771680
144      -0.000006404906
145       0.000001595886
146      -0.000001110712
147      -0.000000598409
148       0.000002157403
149      -0.000001023651
150      -0.000001669953
151       0.000000054889
152      -0.000001374339
153       0.000000009643
154      -0.000000050331
155       0.000000098639
156       0.000000004061
157       0.000000857517
158       0.000001085631
159       0.000000736898
160       0.000000956362
161      -0.000002140516
162      -0.000003058299
163      -0.000005370395
164       0.000012316355
165       0.000004639408
166       0.000007291394
167      -0.000016693388
168       0.000000524949
169       0.000000827362
170      -0.000000167268
171      -0.000000427617
172      -0.000000414435
173      -0.000006095631
174      -0.000011157524
175       0.000001913982
176       0.000003940970
177       0.000005280718
178      -0.000000624433
179       0.000001497549
180       0.000000100067
181       0.000000990976
182      -0.000000437031
183       0.000000819094
184       0.000000718519
 Sym=     1a
 Ene= -8.38772253073120E+01
 Spin= Alpha
 Occup= 1.000000
  1       0.016814337877
  2       0.020631354840
  3       0.036292154116
  4       0.073965062164
  5       0.104941314648
  6       0.030973728322
  7      -0.378517993061
  8      -0.690298405691
  9       0.475012865997
 10       0.892544756346
 11       0.029793274756
 12       0.038180190779
 13      -0.026053601054
 14       0.018188099380
 15      -0.013521559310
 16       0.011789885388
 17      -0.002900247717
 18       0.000680463897
 19      -0.000046930308
 20      -0.000050783195
 21      -0.000036527854
 22      -0.000071959651
 23      -0.000078178553
 24      -0.000056140142
 25      -0.000002696826
 26      -0.000001751385
 27      -0.000001595121
 28       0.000192644292
 29       0.000211623470
 30       0.000151289246
 31       0.000062035775
 32       0.000057340087
 33       0.000044096161
 34       0.000039268524
 35       0.000052908165
 36       0.000035048534
 37      -0.000074842157
 38      -0.000103927239
 39      -0.000068202801
 40       0.000128134928
 41       0.000200801426
 42       0.000126905722
 43      -0.000170943688
 44      -0.000334781485
 45      -0.000198896506
 46       0.001475322605
 47       0.001948410592
 48       0.001300484263
 49      -0.000196608409
 50      -0.000253209508
 51      -0.000170457246
 52       0.000033353777
 53       0.000040839490
 54       0.000027981080