[Molden Format]
[Title]
 Molden file created by orca_2mkl for BaseName=/home/smirnovaanastasia2304_2125/_scratch/HERBD/Tb_OH_cc

[Atoms] AU
Tb   1  65         -0.2233372831         0.3893894083        -0.4768686104 
O    2   8         -1.9001989962         3.7969284551        -0.2245315901 
O    3   8         -1.8602634138        -2.4590514852        -2.3967812296 
O    4   8          3.0206894306        -0.2217253467         1.4061584443 
H    5   1          4.5497972366        -0.5755501092         2.3021078400 
H    6   1         -2.6545701099         5.4248273640        -0.0065970339 
H    7   1         -2.6921699908        -3.7795543131        -3.3069073508 
[GTO]
  1 0
s   6 1.0 
  1169335.0320500000      2257.9371502123
   519704.4586890000      -602.2483363036
   230979.7594170000      1317.3870848776
   102657.6708520000       297.4045038601
    45625.6314900000       796.7055554523
    20278.0584400000       597.4180684830
s   1 1.0 
     9012.4704180000       659.2391358096
s   1 1.0 
     4005.5424080000       358.8443336015
s   1 1.0 
     1780.2410700000       195.3301142957
s   1 1.0 
      791.2182530000       106.3242469495
s   1 1.0 
      351.6525570000        57.8755894164
s   1 1.0 
      156.2900250000        31.5034805347
s   1 1.0 
       69.4622330000        17.1483227009
s   1 1.0 
       30.8721040000         9.3343646701
s   1 1.0 
       13.7209350000         5.0809845280
s   1 1.0 
        6.0981930000         2.7657375498
s   1 1.0 
        2.7103080000         1.5054768355
s   1 1.0 
        1.2045810000         0.8194776225
s   1 1.0 
        0.5353700000         0.4460675345
s   1 1.0 
        0.2379420000         0.2428082411
s   1 1.0 
        0.1057520000         0.1321680658
s   1 1.0 
        0.0470010000         0.0719433101
s   1 1.0 
        0.0208890000         0.0391605091
p   5 1.0 
    15962.9363470000      3334.0319210996
     6385.1745390000      1330.9849615702
     2554.0698150000      2106.5012424578
     1021.6279260000      2051.4716840897
      408.6511700000      1945.7955945689
p   1 1.0 
      163.4604680000       833.1170267169
p   1 1.0 
       65.3841870000       265.0214329808
p   1 1.0 
       26.1536750000        84.3055160641
p   1 1.0 
       10.4614700000        26.8182836797
p   1 1.0 
        4.1845880000         8.5311184025
p   1 1.0 
        1.6738350000         2.7138190943
p   1 1.0 
        0.6695340000         0.8632883556
p   1 1.0 
        0.2678140000         0.2746196966
p   1 1.0 
        0.1071250000         0.0873581909
p   1 1.0 
        0.0428500000         0.0277893649
p   1 1.0 
        0.0171400000         0.0088400274
d   4 1.0 
     1138.5148960000      5200.0410121432
      414.0054170000      4972.1062622461
      150.5474240000      4645.8865053976
       54.7445180000      2512.1027240162
d   1 1.0 
       19.9070970000       534.8524205797
d   1 1.0 
        7.2389450000        91.0755532793
d   1 1.0 
        2.6323430000        15.5084866418
d   1 1.0 
        0.9572160000         2.6408120610
d   1 1.0 
        0.3480780000         0.4496805357
d   1 1.0 
        0.1265740000         0.0765725248
d   1 1.0 
        0.0460270000         0.0130389390
d   1 1.0 
        0.0167370000         0.0022202706
f   4 1.0 
       32.1811360000      1485.3691980056
       10.7270450000       408.9486275325
        3.5756820000        52.1705547224
        1.1918940000         3.1163730569
f   1 1.0 
        0.3972980000         0.7145159560
f   1 1.0 
        0.1324330000         0.0603241996

  2 0
s   6 1.0 
    27032.3826310000         1.4645050749
     4052.3871392000         1.8244031008
      922.3272271000         2.8547160967
      261.2407098900         4.3654874290
       85.3546413500         5.8940772662
       31.0350352400         6.2963020147
s   1 1.0 
       12.2608607300         4.6698272139
s   1 1.0 
        4.9987076000         2.3826123703
s   1 1.0 
        1.1703108200         0.8019291632
s   1 1.0 
        0.4647474100        -0.4011648063
s   1 1.0 
        0.1850453600         0.2010799377
p   4 1.0 
       63.2749548000         3.0898340730
       14.6270493800         3.3923831935
        4.4501223500         2.9482801524
        1.5275799600         1.7113350234
p   1 1.0 
        0.5293511800         0.6436057935
p   1 1.0 
        0.1747842100         0.1610897223
d   1 1.0 
        2.3140000000        12.3767310624
d   1 1.0 
        0.6450000000         1.3234257612
f   1 1.0 
        1.4280000000        12.7097950062

  3 0
s   6 1.0 
    27032.3826310000         1.4645050749
     4052.3871392000         1.8244031008
      922.3272271000         2.8547160967
      261.2407098900         4.3654874290
       85.3546413500         5.8940772662
       31.0350352400         6.2963020147
s   1 1.0 
       12.2608607300         4.6698272139
s   1 1.0 
        4.9987076000         2.3826123703
s   1 1.0 
        1.1703108200         0.8019291632
s   1 1.0 
        0.4647474100        -0.4011648063
s   1 1.0 
        0.1850453600         0.2010799377
p   4 1.0 
       63.2749548000         3.0898340730
       14.6270493800         3.3923831935
        4.4501223500         2.9482801524
        1.5275799600         1.7113350234
p   1 1.0 
        0.5293511800         0.6436057935
p   1 1.0 
        0.1747842100         0.1610897223
d   1 1.0 
        2.3140000000        12.3767310624
d   1 1.0 
        0.6450000000         1.3234257612
f   1 1.0 
        1.4280000000        12.7097950062

  4 0
s   6 1.0 
    27032.3826310000         1.4645050749
     4052.3871392000         1.8244031008
      922.3272271000         2.8547160967
      261.2407098900         4.3654874290
       85.3546413500         5.8940772662
       31.0350352400         6.2963020147
s   1 1.0 
       12.2608607300         4.6698272139
s   1 1.0 
        4.9987076000         2.3826123703
s   1 1.0 
        1.1703108200         0.8019291632
s   1 1.0 
        0.4647474100        -0.4011648063
s   1 1.0 
        0.1850453600         0.2010799377
p   4 1.0 
       63.2749548000         3.0898340730
       14.6270493800         3.3923831935
        4.4501223500         2.9482801524
        1.5275799600         1.7113350234
p   1 1.0 
        0.5293511800         0.6436057935
p   1 1.0 
        0.1747842100         0.1610897223
d   1 1.0 
        2.3140000000        12.3767310624
d   1 1.0 
        0.6450000000         1.3234257612
f   1 1.0 
        1.4280000000        12.7097950062

  5 0
s   3 1.0 
       34.0613410000         0.2556300129
        5.1235746000         0.4613599287
        1.1646626000         0.6811215012
s   1 1.0 
        0.3272304100         0.3083545312
s   1 1.0 
        0.1030724100         0.1296483265
p   1 1.0 
        0.8000000000         1.0784563492

  6 0
s   3 1.0 
       34.0613410000         0.2556300129
        5.1235746000         0.4613599287
        1.1646626000         0.6811215012
s   1 1.0 
        0.3272304100         0.3083545312
s   1 1.0 
        0.1030724100         0.1296483265
p   1 1.0 
        0.8000000000         1.0784563492

  7 0
s   3 1.0 
       34.0613410000         0.2556300129
        5.1235746000         0.4613599287
        1.1646626000         0.6811215012
s   1 1.0 
        0.3272304100         0.3083545312
s   1 1.0 
        0.1030724100         0.1296483265
p   1 1.0 
        0.8000000000         1.0784563492

[5D]
[7F]
[9G]
[MO]
 Sym=     1a
 Ene= -1.91770401819230E+03
 Spin= Alpha
 Occup= 1.000000
  1      -0.088673603256
  2      -0.099133513084
  3      -0.174812254432
  4      -0.300058215406
  5      -0.339540665887
  6      -0.171171285388
  7      -0.009936636492
  8      -0.003260517043
  9       0.002375418830
 10      -0.001571198107
 11       0.001061417361
 12      -0.000718948453
 13       0.000488746719
 14      -0.000345567241
 15       0.000271064109
 16      -0.000219076399
 17       0.000046395502
 18      -0.000011966032
 19      -0.000000009072
 20      -0.000000010028
 21       0.000000043982
 22       0.000000011538
 23       0.000000010226
 24      -0.000000038068
 25      -0.000000010634
 26      -0.000000008203
 27       0.000000030868
 28       0.000000014738
 29       0.000000009594
 30      -0.000000034148
 31      -0.000000023194
 32      -0.000000013716
 33       0.000000047177
 34       0.000000039045
 35       0.000000022236
 36      -0.000000075089
 37      -0.000000070572
 38      -0.000000040958
 39       0.000000136424
 40       0.000000130774
 41       0.000000080300
 42      -0.000000259323
 43      -0.000000245721
 44      -0.000000146545
 45       0.000000458890
 46       0.000000580853
 47       0.000000478592
 48      -0.000001652171
 49      -0.000000058545
 50      -0.000000044972
 51       0.000000196038
 52       0.000000012264
 53       0.000000013891
 54      -0.000000058070
 55      -0.000000129623
 56       0.000000186619
 57       0.000000102993
 58      -0.000000038313
 59      -0.000000065161
 60      -0.000000068353
 61       0.000000095731
 62       0.000000059898
 63      -0.000000024768
 64      -0.000000032216
 65       0.000000362700
 66      -0.000000515302
 67      -0.000000302235
 68       0.000000118766
 69       0.000000176994
 70      -0.000000878150
 71       0.000001249525
 72       0.000000727974
 73      -0.000000284427
 74      -0.000000429930
 75       0.000001907522
 76      -0.000002715969
 77      -0.000001580017
 78       0.000000616089
 79       0.000000934112
 80      -0.000003568791
 81       0.000005082736
 82       0.000002953495
 83      -0.000001150923
 84      -0.000001747192
 85       0.000014172810
 86      -0.000020204192
 87      -0.000011723071
 88       0.000004553695
 89       0.000006945545
 90      -0.000000464966
 91       0.000000642591
 92       0.000000399084
 93      -0.000000190464
 94      -0.000000208628
 95       0.000000127497
 96      -0.000000178372
 97      -0.000000114083
 98       0.000000050505
 99       0.000000057544
100       0.000000026798
101      -0.000000085019
102       0.000000188653
103      -0.000000265317
104       0.000000273193
105       0.000000472987
106      -0.000000116389
107      -0.000000169854
108       0.000000541671
109      -0.000001211403
110       0.000001706167
111      -0.000001747881
112      -0.000003033764
113       0.000000743745
114       0.000000753282
115      -0.000002545520
116       0.000005741654
117      -0.000008130705
118       0.000008133382
119       0.000014342533
120      -0.000003410750
121      -0.000000238317
122       0.000001101950
123      -0.000002088379
124       0.000006586973
125       0.000014600527
126       0.000040332037
127       0.000000355535
128      -0.000000744377
129      -0.000000071243
130      -0.000001978226
131       0.000004107196
132       0.000000376959
133       0.000008276779
134      -0.000017321069
135      -0.000001680601
136      -0.000000164492
137       0.000000152874
138       0.000000102440
139      -0.000000085799
140      -0.000000129167
141       0.000001328798
142      -0.000000349840
143      -0.000000445571
144       0.000001155249
145       0.000001564997
146      -0.000000031498
147       0.000000067345
148      -0.000000120421
149      -0.000000035222
150      -0.000000024906
151      -0.000000173416
152       0.000000042630
153      -0.000000238142
154       0.000001101153
155      -0.000002086924
156       0.000006583043
157       0.000014585225
158       0.000040402481
159       0.000000362953
160       0.000000616298
161       0.000000418348
162      -0.000002010030
163      -0.000003410172
164      -0.000002315156
165       0.000008427037
166       0.000014389406
167       0.000009638733
168      -0.000000129104
169       0.000000197718
170       0.000000159475
171      -0.000000072634
172       0.000000000917
173       0.000000567395
174      -0.000001206602
175      -0.000001596921
176       0.000000783597
177      -0.000000971951
178       0.000000107244
179      -0.000000015435
180      -0.000000024012
181       0.000000077778
182      -0.000000154204
183      -0.000000108501
184      -0.000000003343
185      -0.000000236693
186       0.000001094539
187      -0.000002074926
188       0.000006560553
189       0.000014599300
190       0.000040516891
191      -0.000000700746
192       0.000000141173
193      -0.000000407344
194       0.000003955317
195      -0.000000794007
196       0.000002299146
197      -0.000016331160
198       0.000003268662
199      -0.000009586382
200      -0.000000116986
201       0.000000224638
202       0.000000077340
203       0.000000021610
204      -0.000000072039
205       0.000000558172
206      -0.000001902944
207       0.000000013845
208      -0.000001123334
209       0.000000601657
210      -0.000000105286
211       0.000000029145
212       0.000000004265
213       0.000000147643
214      -0.000000063059
215      -0.000000090765
216       0.000000063959
217       0.000000341700
218       0.000001427252
219       0.000002760977
220       0.000000255321
221       0.000000022606
222       0.000000147978
223       0.000000353512
224       0.000001564705
225       0.000002732621
226      -0.000000142137
227       0.000000209592
228      -0.000000079143
229       0.000000358359
230       0.000001536912
231       0.000002736745
232      -0.000000043882
233      -0.000000227232
234      -0.000000118752
 Sym=     1a
 Ene= -3.22896242664428E+02
 Spin= Alpha
 Occup= 1.000000
  1      -0.033254083414
  2      -0.040994298132
  3      -0.073262936103
  4      -0.148384049380
  5      -0.204818677144
  6      -0.080818129271
  7       0.472614772426
  8       0.600160760309
  9       0.095479676441
 10       0.004267352027
 11      -0.003768337973
 12       0.002703016166
 13      -0.001988729770
 14       0.001458686936
 15      -0.001155934516
 16       0.000939201071
 17      -0.000198593981
 18       0.000051270378
 19      -0.000000181894
 20      -0.000000086936
 21      -0.000000043058
 22      -0.000000246583
 23      -0.000000111362
 24      -0.000000101695
 25      -0.000000168450
 26      -0.000000068375
 27      -0.000000161333
 28      -0.000000031554
 29       0.000000004033
 30      -0.000000085751
 31       0.000000063572
 32       0.000000028289
 33      -0.000000094159
 34      -0.000000152279
 35      -0.000000083301
 36       0.000000277603
 37       0.000000290398
 38       0.000000166850
 39      -0.000000552038
 40      -0.000000551878
 41      -0.000000341967
 42       0.000001100605
 43       0.000001053342
 44       0.000000638357
 45      -0.000001996973
 46      -0.000002501232
 47      -0.000002062197
 48       0.000007104425
 49       0.000000251801
 50       0.000000194069
 51      -0.000000844341
 52      -0.000000052643
 53      -0.000000059865
 54       0.000000250200
 55       0.000021777257
 56      -0.000031293107
 57      -0.000017355855
 58       0.000006517942
 59       0.000010915647
 60       0.000002982243
 61      -0.000004284533
 62      -0.000002380368
 63       0.000000891472
 64       0.000001498141
 65      -0.000002091646
 66       0.000002987088
 67       0.000001708516
 68      -0.000000656469
 69      -0.000001035607
 70       0.000003933736
 71      -0.000005605272
 72      -0.000003243385
 73       0.000001259227
 74       0.000001933884
 75      -0.000008391084
 76       0.000011951836
 77       0.000006944296
 78      -0.000002703304
 79      -0.000004112101
 80       0.000015649305
 81      -0.000022294247
 82      -0.000012946047
 83       0.000005038765
 84       0.000007664218
 85      -0.000061077301
 86       0.000087071301
 87       0.000050516584
 88      -0.000019621315
 89      -0.000029932079
 90       0.000002023425
 91      -0.000002797042
 92      -0.000001736587
 93       0.000000828080
 94       0.000000908046
 95      -0.000000556744
 96       0.000000779027
 97       0.000000497717
 98      -0.000000220233
 99      -0.000000251420
100      -0.000000125712
101       0.000000391635
102      -0.000000861253
103       0.000001211110
104      -0.000001255329
105      -0.000002163922
106       0.000000535512
107       0.000000759288
108      -0.000002409479
109       0.000005383262
110      -0.000007583489
111       0.000007774030
112       0.000013485525
113      -0.000003310233
114      -0.000003249933
115       0.000010986406
116      -0.000024775963
117       0.000035088406
118      -0.000035096235
119      -0.000061892593
120       0.000014715228
121       0.000000897191
122      -0.000004448200
123       0.000008799115
124      -0.000028486331
125      -0.000062978748
126      -0.000173299829
127      -0.000001575169
128       0.000003293702
129       0.000000312146
130       0.000008474129
131      -0.000017587942
132      -0.000001605762
133      -0.000035590116
134       0.000074499932
135       0.000007240932
136       0.000000769695
137      -0.000000642388
138      -0.000000451829
139       0.000000440413
140       0.000000646127
141      -0.000005930930
142       0.000001471232
143       0.000001972183
144      -0.000005208335
145      -0.000007031112
146       0.000000142644
147      -0.000000316723
148       0.000000573923
149       0.000000153451
150       0.000000117432
151       0.000000827619
152      -0.000000198300
153       0.000000896610
154      -0.000004445220
155       0.000008793597
156      -0.000028471278
157      -0.000062916338
158      -0.000173607519
159      -0.000001604433
160      -0.000002729120
161      -0.000001851060
162       0.000008601204
163       0.000014608092
164       0.000009914337
165      -0.000036249148
166      -0.000061888508
167      -0.000041455718
168       0.000000566222
169      -0.000000894382
170      -0.000000771339
171       0.000000355394
172      -0.000000083570
173      -0.000002490465
174       0.000005355461
175       0.000007157671
176      -0.000003511344
177       0.000004436113
178      -0.000000503920
179       0.000000072576
180       0.000000117824
181      -0.000000376191
182       0.000000726395
183       0.000000522589
184       0.000000016043
185       0.000000891320
186      -0.000004419232
187       0.000008744762
188      -0.000028378863
189      -0.000062978336
190      -0.000174093610
191       0.000003103405
192      -0.000000622752
193       0.000001804376
194      -0.000016946422
195       0.000003394340
196      -0.000009850207
197       0.000070231353
198      -0.000014062360
199       0.000041227591
200       0.000000516141
201      -0.000001060249
202      -0.000000309153
203      -0.000000178453
204       0.000000340515
205      -0.000002456276
206       0.000008512020
207      -0.000000128370
208       0.000005106058
209      -0.000002699090
210       0.000000497117
211      -0.000000138248
212      -0.000000013691
213      -0.000000707240
214       0.000000298138
215       0.000000441278
216      -0.000000301827
217      -0.000001578927
218      -0.000006449018
219      -0.000011845632
220      -0.000000956421
221      -0.000000132523
222      -0.000000553635
223      -0.000001629113
224      -0.000007045061
225      -0.000011724507
226       0.000000541724
227      -0.000000749094
228       0.000000363084
229      -0.000001650069
230      -0.000006926363
231      -0.000011741950
232       0.000000108558
233       0.000000855298
234       0.000000425174
 Sym=     1a
 Ene= -2.87478924186382E+02
 Spin= Alpha
 Occup= 1.000000
  1       0.000000001646
  2       0.000000004773
  3      -0.000000004293
  4       0.000000037574
  5      -0.000000057098
  6       0.000000174426
  7      -0.000000474878
  8       0.000000438963
  9      -0.000000623838
 10       0.000001977861
 11      -0.000003581387
 12       0.000005754225
 13      -0.000009281576
 14       0.000012589537
 15       0.000000396908
 16      -0.000035024910
 17       0.000008712560
 18      -0.000002944224
 19       0.179810193105
 20       0.100485712262
 21      -0.290175237115
 22       0.242342829226
 23       0.135431675508
 24      -0.391089559281
 25       0.153543221879
 26       0.085806576067
 27      -0.247785954770
 28       0.007839120584
 29       0.004380951873
 30      -0.012650694736
 31       0.002822475957
 32       0.001577109322
 33      -0.004554817375
 34      -0.001934876310
 35      -0.001080905400
 36       0.003122374226
 37       0.001156486283
 38       0.000645588931
 39      -0.001866133385
 40      -0.000694216344
 41      -0.000386673576
 42       0.001119974172
 43       0.000407356075
 44       0.000226040459
 45      -0.000656957212
 46      -0.000224059790
 47      -0.000130381416
 48       0.000362677981
 49       0.000101595506
 50       0.000057956883
 51      -0.000164212944
 52      -0.000032398392
 53      -0.000018518327
 54       0.000052385257
 55       0.000000054932
 56       0.000000037310
 57       0.000000014441
 58      -0.000000026756
 59      -0.000000032516
 60       0.000000092014
 61      -0.000000108219
 62      -0.000000068749
 63       0.000000036585
 64       0.000000054751
 65      -0.000000129916
 66       0.000000186008
 67       0.000000111548
 68      -0.000000100205
 69      -0.000000131284
 70       0.000000393832
 71      -0.000000490205
 72      -0.000000301394
 73       0.000000233054
 74       0.000000319614
 75      -0.000000894932
 76       0.000001097907
 77       0.000000675569
 78      -0.000000508845
 79      -0.000000703176
 80       0.000001793447
 81      -0.000002144632
 82      -0.000001337362
 83       0.000000975592
 84       0.000001366468
 85       0.000003596939
 86      -0.000003296660
 87      -0.000001689731
 88       0.000001600188
 89       0.000003094278
 90      -0.000000403988
 91       0.000000379833
 92       0.000000178893
 93      -0.000000248277
 94      -0.000000443596
 95       0.000000291038
 96      -0.000000303701
 97      -0.000000184449
 98       0.000000157312
 99       0.000000246943
100      -0.000000911900
101       0.000004883349
102       0.000002576049
103      -0.000001713328
104      -0.000003194793
105      -0.000000351026
106      -0.000000943982
107       0.000001684487
108      -0.000008564669
109      -0.000003697925
110       0.000002143330
111       0.000006303090
112       0.000002293913
113       0.000001126062
114      -0.000001375995
115       0.000007289068
116       0.000005330959
117      -0.000003995310
118      -0.000004588502
119       0.000001640574
120      -0.000001644468
121      -0.000000028680
122       0.000000138377
123      -0.000000250877
124       0.000001045089
125       0.000005470735
126       0.000007346106
127       0.000000744599
128       0.000001033108
129      -0.000001565059
130      -0.000000471024
131      -0.000005106606
132       0.000003385319
133       0.000013211021
134      -0.000010237000
135      -0.000012868455
136       0.000000512122
137      -0.000001587981
138       0.000002886650
139       0.000002050991
140      -0.000001177442
141      -0.000001753426
142       0.000006105265
143      -0.000011084893
144      -0.000007521113
145       0.000004722341
146      -0.000002076301
147       0.000000132814
148       0.000001023336
149      -0.000001434777
150      -0.000002227661
151       0.000000295181
152      -0.000002583469
153      -0.000000000524
154      -0.000000001568
155       0.000000019549
156       0.000000029743
157       0.000002034234
158       0.000003107769
159       0.000000821631
160       0.000000272927
161      -0.000001781555
162      -0.000001130104
163       0.000000683919
164       0.000005091546
165       0.000010901433
166       0.000009870645
167      -0.000006733406
168      -0.000002931166
169      -0.000000490213
170      -0.000002037864
171       0.000000108191
172       0.000001904620
173       0.000011135847
174       0.000001835597
175       0.000007709043
176      -0.000000434278
177      -0.000007291205
178       0.000000450412
179       0.000001727566
180       0.000003387056
181      -0.000001262625
182       0.000000371537
183      -0.000001374659
184       0.000000875622
185      -0.000000008454
186       0.000000037939
187      -0.000000056916
188       0.000000288564
189       0.000002806929
190       0.000004389753
191       0.000001330654
192       0.000000504670
193      -0.000001404622
194      -0.000004849619
195      -0.000000859025
196       0.000002353627
197      -0.000001492033
198       0.000005883384
199      -0.000015896837
200       0.000002822064
201       0.000001658472
202      -0.000001098986
203      -0.000002087937
204      -0.000000590936
205      -0.000010753607
206      -0.000006405281
207       0.000004244016
208       0.000007898926
209       0.000002311848
210       0.000000694715
211       0.000003535621
212      -0.000000730199
213       0.000000068775
214      -0.000001104978
215       0.000002058300
216       0.000000182297
217      -0.000000153754
218       0.000006602466
219       0.000002446891
220      -0.000005213238
221      -0.000001728889
222       0.000005044265
223      -0.000000047037
224       0.000010694924
225       0.000003514967
226      -0.000002388911
227      -0.000004778096
228       0.000005577577
229      -0.000000182018
230       0.000005754392
231       0.000002280285
232      -0.000002987779
233      -0.000000899638
234       0.000006727078
 Sym=     1a
 Ene= -2.87467851048432E+02
 Spin= Alpha
 Occup= 1.000000
  1       0.000000015325
  2       0.000000019130
  3       0.000000033427
  4       0.000000070938
  5       0.000000091136
  6       0.000000046888
  7      -0.000000269344
  8      -0.000000264706
  9       0.000000001573
 10       0.000000088304
 11      -0.000000171624
 12       0.000000248373
 13      -0.000000331832
 14       0.000000142448
 15       0.000002560285
 16      -0.000007729350
 17       0.000001090803
 18      -0.000000378523
 19      -0.065023938354
 20      -0.316192010583
 21      -0.149787946689
 22      -0.087637507369
 23      -0.426155017571
 24      -0.201880116662
 25      -0.055519293980
 26      -0.269973771108
 27      -0.127893243172
 28      -0.002825983136
 29      -0.013741773203
 30      -0.006509727459
 31      -0.001026725572
 32      -0.004992926799
 33      -0.002365440326
 34       0.000709492569
 35       0.003450536672
 36       0.001634911930
 37      -0.000436035268
 38      -0.002121191672
 39      -0.001005431106
 40       0.000284282153
 41       0.001384121178
 42       0.000656735467
 43      -0.000193010042
 44      -0.000940999874
 45      -0.000447437203
 46       0.000073885573
 47       0.000331418058
 48       0.000161857802
 49      -0.000031148400
 50      -0.000146494771
 51      -0.000070102986
 52       0.000007989614
 53       0.000036929881
 54       0.000017614317
 55      -0.000000098253
 56      -0.000000050157
 57      -0.000000159588
 58       0.000000006501
 59      -0.000000311207
 60       0.000000912566
 61       0.000000793679
 62       0.000001813165
 63      -0.000000114764
 64       0.000003473564
 65      -0.000002753096
 66      -0.000002466025
 67      -0.000005546254
 68       0.000000384420
 69      -0.000010900110
 70       0.000006522343
 71       0.000005813072
 72       0.000013105443
 73      -0.000000890860
 74       0.000025626649
 75      -0.000014356904
 76      -0.000012771893
 77      -0.000028863147
 78       0.000001976879
 79      -0.000056344041
 80       0.000026374255
 81       0.000023638178
 82       0.000052717756
 83      -0.000003291248
 84       0.000103282372
 85       0.000007597080
 86       0.000001376581
 87       0.000016141413
 88      -0.000004095991
 89       0.000023502732
 90      -0.000003059247
 91      -0.000001960252
 92      -0.000006760858
 93       0.000001384397
 94      -0.000011808675
 95       0.000002733963
 96       0.000002357435
 97       0.000005397803
 98      -0.000000356303
 99       0.000010553127
100      -0.000007195675
101       0.000003691504
102      -0.000003372336
103      -0.000003175300
104       0.000006054939
105      -0.000002355680
106       0.000002300296
107       0.000031115156
108      -0.000015354793
109       0.000014760961
110       0.000013936967
111      -0.000024848391
112       0.000009607280
113      -0.000009782376
114      -0.000009081833
115       0.000003008358
116      -0.000003267871
117      -0.000004896601
118       0.000005177229
119      -0.000001102488
120       0.000003433524
121       0.000000584639
122      -0.000003127492
123       0.000006900448
124      -0.000023429229
125      -0.000001907843
126      -0.000022646741
127      -0.000005781882
128       0.000010004786
129       0.000000089180
130       0.000038004605
131      -0.000074041999
132      -0.000004991242
133       0.000058028018
134      -0.000141921235
135      -0.000023441603
136       0.000001881479
137      -0.000000170893
138       0.000001086001
139       0.000000552441
140       0.000003585608
141      -0.000011868846
142       0.000000943974
143      -0.000004751274
144      -0.000005924370
145      -0.000020630599
146       0.000000518083
147      -0.000002699493
148       0.000004520214
149       0.000000565806
150       0.000000420714
151       0.000006889783
152       0.000000208554
153      -0.000000814175
154       0.000004335492
155      -0.000009494754
156       0.000032407739
157       0.000008236433
158       0.000032340452
159       0.000006505019
160       0.000010947306
161       0.000007542567
162      -0.000046893609
163      -0.000078857969
164      -0.000053849195
165      -0.000083351206
166      -0.000141252405
167      -0.000094231690
168      -0.000000228574
169       0.000001823411
170       0.000002925907
171      -0.000001118265
172       0.000002871284
173       0.000002382148
174      -0.000011492486
175      -0.000019532686
176       0.000008748914
177      -0.000017427557
178       0.000004799291
179      -0.000001034636
180      -0.000001385369
181       0.000002955277
182      -0.000007332070
183      -0.000005214812
184       0.000001000325
185       0.000000194808
186      -0.000001036539
187       0.000002269233
188      -0.000007966516
189      -0.000003455773
190      -0.000004971858