[Molden Format]
[Title]
 Molden file created by orca_2mkl for BaseName=/home/smirnovaanastasia2304_2125/_scratch/O2_cc/Gd_O2_cc

[Atoms] AU
Gd   1  64         -0.5394204352        -0.3328488023        -1.6283977966 
O    2   8         -1.6402955123         2.7265063147        -0.6027300401 
O    3   8          3.3546531713        -0.7320458892        -0.6468589248 
[GTO]
  1 0
s   6 1.0 
  1133304.9414800000      2174.9610498235
   503691.0851020000      -577.4941628565
   223862.7044900000      1271.8793195317
    99494.5353290000       292.2852755405
    44219.7934790000       774.9724147105
    19653.2415460000       586.7258609135
s   1 1.0 
     8734.7740210000       643.9451069508
s   1 1.0 
     3882.1217870000       350.5193187461
s   1 1.0 
     1725.3874610000       190.7985502128
s   1 1.0 
      766.8388710000       103.8575758734
s   1 1.0 
      340.8172760000        56.5329037360
s   1 1.0 
      151.4743450000        30.7726150905
s   1 1.0 
       67.3219310000        16.7504899843
s   1 1.0 
       29.9208580000         9.1178118166
s   1 1.0 
       13.2981590000         4.9631080848
s   1 1.0 
        5.9102930000         2.7015738927
s   1 1.0 
        2.6267970000         1.4705506110
s   1 1.0 
        1.1674650000         0.8004661926
s   1 1.0 
        0.5188730000         0.4357183963
s   1 1.0 
        0.2306100000         0.2371748825
s   1 1.0 
        0.1024940000         0.1291022836
s   1 1.0 
        0.0455530000         0.0702745106
s   1 1.0 
        0.0202460000         0.0382529133
p   5 1.0 
    15432.8043060000      3126.8623215264
     6173.1217220000      1264.6366638851
     2469.2486890000      2002.5787782743
      987.6994760000      1963.6893411004
      395.0797900000      1867.4733471641
p   1 1.0 
      158.0319160000       798.6768471840
p   1 1.0 
       63.2127660000       254.0657253142
p   1 1.0 
       25.2851070000        80.8204162074
p   1 1.0 
       10.1140430000        25.7096451541
p   1 1.0 
        4.0456170000         8.1784507898
p   1 1.0 
        1.6182470000         2.6016334098
p   1 1.0 
        0.6472990000         0.8276014788
p   1 1.0 
        0.2589190000         0.2632661299
p   1 1.0 
        0.1035680000         0.0837475431
p   1 1.0 
        0.0414270000         0.0266406271
p   1 1.0 
        0.0165710000         0.0084747322
d   4 1.0 
     1092.7062230000      4841.5336151871
      397.3477180000      4644.8935401418
      144.4900790000      4335.5630527329
       52.5418470000      2336.0290078754
d   1 1.0 
       19.1061260000       497.7625276697
d   1 1.0 
        6.9476820000        84.7598081537
d   1 1.0 
        2.5264300000        14.4330396780
d   1 1.0 
        0.9187020000         2.4576823001
d   1 1.0 
        0.3340730000         0.4184971391
d   1 1.0 
        0.1214810000         0.0712622795
d   1 1.0 
        0.0441750000         0.0121347005
d   1 1.0 
        0.0160640000         0.0020663984
f   4 1.0 
       34.7127000000      1486.0079731034
       11.5709000000       452.7076001348
        3.8569670000        63.6295197498
        1.2856560000         3.8109128600
f   1 1.0 
        0.4285520000         0.8472430467
f   1 1.0 
        0.1428510000         0.0715298757

  2 0
s   6 1.0 
    27032.3826310000         1.4645050749
     4052.3871392000         1.8244031008
      922.3272271000         2.8547160967
      261.2407098900         4.3654874290
       85.3546413500         5.8940772662
       31.0350352400         6.2963020147
s   1 1.0 
       12.2608607300         4.6698272139
s   1 1.0 
        4.9987076000         2.3826123703
s   1 1.0 
        1.1703108200         0.8019291632
s   1 1.0 
        0.4647474100        -0.4011648063
s   1 1.0 
        0.1850453600         0.2010799377
p   4 1.0 
       63.2749548000         3.0898340730
       14.6270493800         3.3923831935
        4.4501223500         2.9482801524
        1.5275799600         1.7113350234
p   1 1.0 
        0.5293511800         0.6436057935
p   1 1.0 
        0.1747842100         0.1610897223
d   1 1.0 
        2.3140000000        12.3767310624
d   1 1.0 
        0.6450000000         1.3234257612
f   1 1.0 
        1.4280000000        12.7097950062

  3 0
s   6 1.0 
    27032.3826310000         1.4645050749
     4052.3871392000         1.8244031008
      922.3272271000         2.8547160967
      261.2407098900         4.3654874290
       85.3546413500         5.8940772662
       31.0350352400         6.2963020147
s   1 1.0 
       12.2608607300         4.6698272139
s   1 1.0 
        4.9987076000         2.3826123703
s   1 1.0 
        1.1703108200         0.8019291632
s   1 1.0 
        0.4647474100        -0.4011648063
s   1 1.0 
        0.1850453600         0.2010799377
p   4 1.0 
       63.2749548000         3.0898340730
       14.6270493800         3.3923831935
        4.4501223500         2.9482801524
        1.5275799600         1.7113350234
p   1 1.0 
        0.5293511800         0.6436057935
p   1 1.0 
        0.1747842100         0.1610897223
d   1 1.0 
        2.3140000000        12.3767310624
d   1 1.0 
        0.6450000000         1.3234257612
f   1 1.0 
        1.4280000000        12.7097950062

[5D]
[7F]
[9G]
[MO]
 Sym=     1a
 Ene= -1.85294193072223E+03
 Spin= Alpha
 Occup= 1.000000
  1      -0.086997709441
  2      -0.097960388501
  3      -0.173998097484
  4      -0.299847895314
  5      -0.340957105166
  6      -0.172341497381
  7      -0.010167313003
  8      -0.003229585134
  9       0.002350879372
 10      -0.001551339439
 11       0.001044783455
 12      -0.000701240858
 13       0.000464814499
 14      -0.000308235635
 15       0.000208693804
 16      -0.000146284807
 17       0.000048495193
 18      -0.000012134628
 19       0.000000487154
 20       0.000000528816
 21       0.000000378761
 22      -0.000000256579
 23      -0.000000769882
 24      -0.000000416803
 25       0.000000303059
 26       0.000000470735
 27       0.000000298322
 28      -0.000000363123
 29      -0.000000501657
 30      -0.000000329861
 31       0.000000544615
 32       0.000000638971
 33       0.000000444566
 34      -0.000000919077
 35      -0.000000890973
 36      -0.000000667384
 37       0.000001668725
 38       0.000001365466
 39       0.000001100184
 40      -0.000003182754
 41      -0.000001678911
 42      -0.000001689082
 43       0.000006111570
 44       0.000000880285
 45       0.000002206898
 46      -0.000009404846
 47      -0.000016306533
 48      -0.000010008909
 49       0.000001444102
 50       0.000002822982
 51       0.000001678000
 52      -0.000000160236
 53      -0.000000572997
 54      -0.000000301075
 55       0.000000008217
 56      -0.000000008432
 57      -0.000000003817
 58      -0.000000009836
 59      -0.000000000059
 60      -0.000000115561
 61       0.000000048939
 62       0.000000042315
 63       0.000000073414
 64      -0.000000095677
 65       0.000000295401
 66      -0.000000114468
 67      -0.000000128963
 68      -0.000000146429
 69       0.000000244941
 70      -0.000000620391
 71       0.000000239551
 72       0.000000266655
 73       0.000000312363
 74      -0.000000518179
 75       0.000001174110
 76      -0.000000516535
 77      -0.000000439589
 78      -0.000000754842
 79       0.000000941173
 80      -0.000001657582
 81       0.000001077567
 82       0.000000220892
 83       0.000002025118
 84      -0.000001137078
 85       0.000008221598
 86      -0.000002024392
 87      -0.000004411490
 88      -0.000001586065
 89       0.000007781695
 90      -0.000000908734
 91       0.000000321091
 92       0.000000557997
 93       0.000000190277
 94      -0.000000690498
 95       0.000000123900
 96      -0.000000032077
 97      -0.000000100488
 98       0.000000021553
 99       0.000000093583
100       0.000000129871
101       0.000000074164
102       0.000000039317
103      -0.000000035936
104       0.000000077764
105       0.000000250990
106      -0.000000100034
107      -0.000000594280
108      -0.000000431779
109      -0.000000132926
110       0.000000313383
111      -0.000000338931
112      -0.000001211302
113       0.000000444822
114       0.000002705893
115       0.000001224294
116       0.000001055390
117      -0.000000337243
118       0.000001846772
119       0.000005307460
120      -0.000002098151
121      -0.000000061388
122       0.000000266860
123      -0.000000461820
124       0.000002233607
125       0.000009913118
126       0.000031281492
127      -0.000000131470
128       0.000000359103
129       0.000000119722
130      -0.000000672670
131       0.000001803546
132       0.000000597606
133       0.000002672685
134      -0.000010026108
135      -0.000003639412
136       0.000000236455
137       0.000000105784
138      -0.000000304132
139       0.000000390915
140       0.000000321010
141      -0.000000455205
142      -0.000000207156
143       0.000000588938
144      -0.000000761417
145      -0.000000620283
146       0.000000546629
147      -0.000000191929
148       0.000000470438
149       0.000000590223
150       0.000000531122
151       0.000000911263
152      -0.000000470302
153      -0.000000162297
154       0.000000751232
155      -0.000001420928
156       0.000004240867
157       0.000008529116
158       0.000020016297
159      -0.000000747808
160       0.000000076207
161      -0.000000188693
162       0.000002933041
163      -0.000000312698
164       0.000000733985
165      -0.000008955988
166       0.000000508977
167      -0.000002438393
168      -0.000000098941
169       0.000000086680
170      -0.000000012972
171       0.000000183162
172      -0.000000055888
173       0.000000725578
174      -0.000000673125
175       0.000000083362
176      -0.000001370271
177       0.000000354340
178      -0.000000185549
179      -0.000000211934
180       0.000000015573
181       0.000000222487
182      -0.000000039985
183      -0.000000364501
184       0.000000105278
 Sym=     1a
 Ene= -3.10553131163341E+02
 Spin= Alpha
 Occup= 1.000000
  1      -0.032481124481
  2      -0.040293208546
  3      -0.072581988380
  4      -0.147582306721
  5      -0.205319834024
  6      -0.084143251603
  7       0.468433811352
  8       0.603402351578
  9       0.098307825923
 10       0.004137690987
 11      -0.003616062121
 12       0.002574055229
 13      -0.001854983807
 14       0.001277629016
 15      -0.000873807376
 16       0.000616412644
 17      -0.000204436717
 18       0.000051214376
 19      -0.000010291291
 20       0.000016625771
 21       0.000004292328
 22      -0.000015259282
 23       0.000023754193
 24       0.000005967489
 25      -0.000012619822
 26       0.000016787689
 27       0.000003671409
 28      -0.000000177839
 29      -0.000002830887
 30      -0.000001304926
 31      -0.000002202626
 32       0.000000755839
 33      -0.000000320777
 34       0.000003741451
 35       0.000002393399
 36       0.000002171238
 37      -0.000006855349
 38      -0.000004826109
 39      -0.000004173226
 40       0.000013292934
 41       0.000006587891
 42       0.000006866941
 43      -0.000025602403
 44      -0.000004542607
 45      -0.000009623189
 46       0.000039523720
 47       0.000069352623
 48       0.000042427016
 49      -0.000006070144
 50      -0.000011991738
 51      -0.000007108861
 52       0.000000669754
 53       0.000002437420
 54       0.000001277186
 55      -0.000001132996
 56       0.000000057000
 57       0.000001557604
 58      -0.000001359046
 59      -0.000000751537
 60       0.000000772552
 61      -0.000000079966
 62      -0.000000921710
 63       0.000000683865
 64       0.000000549245
 65      -0.000001398771
 66       0.000000397501
 67       0.000000882159
 68       0.000000148389
 69      -0.000001172004
 70       0.000002655731
 71      -0.000000934000
 72      -0.000001374254
 73      -0.000000907524
 74       0.000002187021
 75      -0.000005091295
 76       0.000002152176
 77       0.000002033934
 78       0.000002993999
 79      -0.000004112153
 80       0.000007373342
 81      -0.000004456498
 82      -0.000001344918
 83      -0.000008114124
 84       0.000005258690
 85      -0.000034942671
 86       0.000008487507
 87       0.000018862203
 88       0.000006449097
 89      -0.000033150215
 90       0.000003870270
 91      -0.000001355774
 92      -0.000002402886
 93      -0.000000760078
 94       0.000002939036
 95      -0.000000534335
 96       0.000000135519
 97       0.000000439416
 98      -0.000000104627
 99      -0.000000403348
100      -0.000000642113
101      -0.000000339566
102      -0.000000194074
103       0.000000149732
104      -0.000000342284
105      -0.000001174068
106       0.000000462386
107       0.000002787396
108       0.000001825304
109       0.000000728871
110      -0.000001160347
111       0.000001631991
112       0.000005562609
113      -0.000002104382
114      -0.000011549181
115      -0.000005177344
116      -0.000004532089
117       0.000001359703
118      -0.000007900771
119      -0.000022631129
120       0.000008968250
121       0.000000229657
122      -0.000001051004
123       0.000001964410
124      -0.000009935792
125      -0.000042613070
126      -0.000132594852
127       0.000000511661
128      -0.000001362880
129      -0.000000450596
130       0.000003065591
131      -0.000008253881
132      -0.000002738756
133      -0.000011245812
134       0.000042368702
135       0.000015393993
136      -0.000000981395
137      -0.000000440386
138       0.000001261995
139      -0.000001623617
140      -0.000001334229
141       0.000001732287
142       0.000000788942
143      -0.000002244131
144       0.000002902350
145       0.000002359407
146      -0.000002226171
147       0.000000786797
148      -0.000001920921
149      -0.000002403637
150      -0.000002167534
151      -0.000003718641
152       0.000001909364
153       0.000000594670
154      -0.000002958458
155       0.000005840573
156      -0.000017843635
157      -0.000035809437
158      -0.000084452774
159       0.000003228033
160      -0.000000319182
161       0.000000818848
162      -0.000012339640
163       0.000001308654
164      -0.000003091012
165       0.000037764164
166      -0.000002098370
167       0.000010302964
168       0.000000450937
169      -0.000000402920
170       0.000000055345
171      -0.000000838649
172       0.000000242231
173      -0.000003120887
174       0.000002906496
175      -0.000000352663
176       0.000005898679
177      -0.000001505963
178       0.000000807522
179       0.000000920545
180      -0.000000066575
181      -0.000000972358
182       0.000000172316
183       0.000001587841
184      -0.000000450674
 Sym=     1a
 Ene= -2.76796808885725E+02
 Spin= Alpha
 Occup= 1.000000
  1       0.000001693681
  2       0.000002064659
  3       0.000003910620
  4       0.000007290747
  5       0.000011841989
  6       0.000001321667
  7      -0.000019109269
  8      -0.000031253878
  9      -0.000008746496
 10      -0.000018189234
 11       0.000036662637
 12      -0.000050268011
 13       0.000064438138
 14      -0.000051180118
 15      -0.000075568289
 16       0.000284951176
 17      -0.000052692032
 18       0.000009887033
 19      -0.069729983289
 20       0.325139586863
 21       0.123058198854
 22      -0.094320334278
 23       0.439802799809
 24       0.166455861894
 25      -0.059935370409
 26       0.279466374756
 27       0.105771729429
 28      -0.003123929731
 29       0.014578935408
 30       0.005518607986
 31      -0.001102654023
 32       0.005117499800
 33       0.001935331062
 34       0.000764982900
 35      -0.003523532102
 36      -0.001330808108
 37      -0.000473577423
 38       0.002131109486
 39       0.000801660962
 40       0.000309569419
 41      -0.001315758441
 42      -0.000489840937
 43      -0.000200727973
 44       0.000788270996
 45       0.000288924226
 46       0.000050363300
 47      -0.000245058695
 48      -0.000093399266
 49      -0.000024300544
 50       0.000143423750
 51       0.000056202862
 52       0.000008404980
 53      -0.000048411329
 54      -0.000018910549
 55      -0.000003204779
 56      -0.000001679436
 57       0.000003394981
 58      -0.000004572605
 59      -0.000005129054
 60       0.000001449964
 61       0.000000203524
 62      -0.000001703475
 63       0.000001656708
 64       0.000001500851
 65       0.000001318698
 66       0.000001376423
 67      -0.000003504419
 68       0.000005605596
 69       0.000001645547
 70      -0.000003611797
 71      -0.000003884066
 72       0.000008015650
 73      -0.000013285480
 74      -0.000005662161
 75       0.000007106555
 76       0.000008022411
 77      -0.000016083952
 78       0.000027015446
 79       0.000011428905
 80      -0.000007209544
 81      -0.000010891505
 82       0.000020624682
 83      -0.000036586440
 84      -0.000012376814
 85      -0.000046340796
 86      -0.000014982242
 87       0.000047089067
 88      -0.000052549051
 89      -0.000063520612
 90       0.000009253873
 91       0.000004385421
 92      -0.000015327985
 93       0.000020345425
 94       0.000010694064
 95      -0.000002536715
 96      -0.000001339142
 97       0.000004369267
 98      -0.000005968818
 99      -0.000003000313
100       0.000001289699
101      -0.000001075485
102       0.000001365945
103       0.000002247730
104       0.000001131625
105       0.000001538252
106      -0.000000948543
107      -0.000004931389
108       0.000005371039
109      -0.000005751920
110      -0.000009930945
111      -0.000003954518
112      -0.000004782115
113       0.000002860642
114      -0.000015558331
115      -0.000000532354
116      -0.000010153544
117      -0.000014411354
118      -0.000016440673
119      -0.000027558680
120       0.000020746884
121       0.000002464417
122      -0.000012359126
123       0.000023303444
124      -0.000038556783
125      -0.000027153212
126      -0.000241691211
127      -0.000002293535
128       0.000009007395
129       0.000003301592
130      -0.000017023497
131       0.000036583237
132       0.000011117127
133      -0.000025312186
134       0.000085280572
135       0.000030189198
136       0.000005254547
137       0.000002115191
138      -0.000006900321
139       0.000008611149
140       0.000006741207
141      -0.000006423899
142      -0.000002000378
143       0.000009558683
144      -0.000011409823
145      -0.000006775245
146       0.000012876480
147      -0.000003503171
148       0.000009932111
149       0.000013878847
150       0.000011158003
151       0.000019425941
152      -0.000012016470
153       0.000000626310
154      -0.000003155239
155       0.000006170684
156      -0.000017465423
157      -0.000026250177
158      -0.000034177391
159       0.000003924437
160       0.000000757696
161       0.000001502210
162      -0.000013794104
163      -0.000000736968
164      -0.000004428248
165       0.000007927211
166       0.000014300607
167       0.000008682199
168       0.000000678428
169      -0.000001584839
170      -0.000000148749
171      -0.000002073670
172      -0.000001037741
173      -0.000003898645
174       0.000006665975
175       0.000000344480
176       0.000009795780
177       0.000002509113
178       0.000001759063
179      -0.000000237444
180       0.000000904346
181      -0.000002501750
182      -0.000001105718
183       0.000002562673
184       0.000003455084
 Sym=     1a
 Ene= -2.76796373146796E+02
 Spin= Alpha
 Occup= 1.000000
  1       0.000000832266
  2       0.000001068327
  3       0.000001767206
  4       0.000004175693
  5       0.000004498047
  6       0.000004088057
  7      -0.000018323425
  8      -0.000008094975
  9      -0.000012139643
 10       0.000026640346
 11      -0.000047100446
 12       0.000076740159
 13      -0.000124675735
 14       0.000183570079
 15      -0.000216150847
 16       0.000164334448
 17       0.000011378825
 18      -0.000007461834
 19      -0.334960858561
 20      -0.029235619860
 21      -0.112556269068
 22      -0.453086205054
 23      -0.039546184030
 24      -0.152249929164
 25      -0.287903629312
 26      -0.025127903703
 27      -0.096743483040
 28      -0.015021188446
 29      -0.001313680829
 30      -0.005048701169
 31      -0.005270653608
 32      -0.000455013887
 33      -0.001768870538
 34       0.003628887923
 35       0.000307633137
 36       0.001215383518
 37      -0.002199037569
 38      -0.000175668573
 39      -0.000731743533
 40       0.001375954363
 41       0.000092535052
 42       0.000450168217
 43      -0.000876508281
 44      -0.000041401515
 45      -0.000279003912
 46       0.000580652220
 47       0.000005048865
 48       0.000174929688
 49      -0.000208923792
 50      -0.000016334511
 51      -0.000069363311
 52       0.000062681869
 53       0.000005802171
 54       0.000021209347
 55      -0.000002318947
 56      -0.000000075744
 57      -0.000002040444
 58       0.000004263593
 59      -0.000005117496
 60       0.000001541372
 61      -0.000000228539
 62       0.000001341986
 63      -0.000003137505
 64       0.000003034889
 65      -0.000003364019
 66       0.000004142877
 67      -0.000000569359
 68       0.000007791973
 69      -0.000000449632
 70       0.000007065608
 71      -0.000008854063
 72       0.000001656795
 73      -0.000017183576
 74       0.000001042546
 75      -0.000014663020
 76       0.000018834191
 77      -0.000002924889
 78       0.000035479706
 79      -0.000001247236
 80       0.000024367090
 81      -0.000030528834
 82       0.000004034133
 83      -0.000056919011
 84       0.000002532591
 85      -0.000036547440
 86       0.000041757896
 87      -0.000007409896
 88       0.000082587247
 89      -0.000009831252
 90       0.000001904268
 91       0.000000731713
 92      -0.000000086591
 93      -0.000000275657
 94       0.000003936973
 95       0.000000220941
 96      -0.000001089298
 97       0.000000167023
 98      -0.000001639277
 99      -0.000000935119
100      -0.000001771605
101      -0.000002700309
102       0.000000611696
103       0.000002670861
104      -0.000000136348
105      -0.000003368354
106       0.000001392308
107       0.000009796113
108       0.000014705803
109      -0.000003453259
110      -0.000013850368
111       0.000000485272
112       0.000017650747
113      -0.000008140366
114      -0.000012867223
115      -0.000017954836
116       0.000002859455
117       0.000020475912
118      -0.000001904825
119      -0.000026986077
120       0.000006927035
121       0.000000029526
122      -0.000000157628
123       0.000000250470
124       0.000003199748
125       0.000018458083
126       0.000031004617
127      -0.000002152598
128       0.000000393036
129      -0.000000466419
130       0.000008281568
131       0.000009643609
132       0.000006728367
133      -0.000005488700
134      -0.000006086156
135      -0.000004324470
136       0.000000749079
137       0.000000541459
138      -0.000000609259
139       0.000000985241
140       0.000001507138
141      -0.000002492682
142      -0.000002211403
143      -0.000003055142
144       0.000003311862
145      -0.000008779664
146       0.000001954049
147      -0.000000328942
148       0.000001319806
149       0.000001963961
150       0.000001487579
151       0.000002728484
152      -0.000001903146
153       0.000002370856
154      -0.000012044360
155       0.000023961003
156      -0.000072378389
157      -0.000118733399
158      -0.000200396811
159       0.000018639720
160      -0.000002330486
161       0.000004512675
162      -0.000069516944
163       0.000008110285
164      -0.000017087211
165       0.000075612385
166      -0.000011079976
167       0.000017586450
168       0.000004090708
169      -0.000003731285
170       0.000000436670
171      -0.000007605325
172       0.000002058007
173      -0.000021169837
174       0.000020030099
175      -0.000002254431
176       0.000040185672
177      -0.000009724069
178       0.000003096862
179       0.000004432033
180      -0.000000648570
181      -0.000004003328
182       0.000001164243
183       0.000006659190
184      -0.000003050971
 Sym=     1a
 Ene= -2.76796234439495E+02
 Spin= Alpha
 Occup= 1.000000
  1      -0.000000000022
  2      -0.000000000028
  3      -0.000000000048
  4      -0.000000000104
  5      -0.000000000130
  6      -0.000000000072
  7       0.000000000386
  8       0.000000000247
  9       0.000000000346
 10      -0.000000000424
 11       0.000000000702
 12      -0.000000001235
 13       0.000000002186
 14      -0.000000003683
 15       0.000000005781
 16      -0.000000006814
 17       0.000000000298
 18       0.000000000067
 19       0.093066378445
 20       0.138386848147
 21      -0.312904999305
 22       0.125886958766
 23       0.187190043749
 24      -0.423253374798
 25       0.079991612765
 26       0.118945072821
 27      -0.268945412381
 28       0.004175867795
 29       0.006209387755
 30      -0.014039978872
 31       0.001460032646
 32       0.002171022798
 33      -0.004908876634
 34      -0.001000606546
 35      -0.001487869590
 36       0.003364206744
 37       0.000596934616
 38       0.000887620547
 39      -0.002006990796
 40      -0.000357311541
 41      -0.000531306386
 42       0.001201333512
 43       0.000208807360
 44       0.000310483978
 45      -0.000702034145
 46      -0.000115649480
 47      -0.000171963146
 48       0.000388820364
 49       0.000053827458
 50       0.000080039973
 51      -0.000180976213
 52      -0.000017140936
 53      -0.000025488213
 54       0.000057630774
 55      -0.000002017819
 56       0.000003855092
 57      -0.000004478332
 58      -0.000003252023
 59      -0.000000066500
 60       0.000001766349
 61      -0.000000930586
 62       0.000002276663
 63       0.000001393006
 64      -0.000000533862
 65       0.000000986063
 66       0.000000786504
 67       0.000000392621
 68       0.000000000451
 69      -0.000000614411
 70      -0.000001193516
 71      -0.000000387830
 72      -0.000000854523
 73      -0.000000335760
 74       0.000000607024
 75       0.000003041930
 76      -0.000000089435
 77       0.000002902812
 78       0.000001497248
 79      -0.000001285956
 80      -0.000005076703
 81       0.000000986146
 82      -0.000005407187
 83      -0.000002996701
 84       0.000001943259
 85       0.000003497777
 86      -0.000000783866
 87       0.000003794054
 88       0.000002126008
 89      -0.000001312252
 90       0.000002398369
 91       0.000001220614
 92       0.000001421024
 93       0.000000413559
 94      -0.000001326921
 95      -0.000000740279
 96      -0.000000341557
 97      -0.000000462246
 98      -0.000000148525
 99       0.000000401024
100      -0.000000499134
101       0.000000044905
102       0.000000663525
103      -0.000000049952
104      -0.000000627671
105       0.000000206348
106      -0.000000306463
107       0.000003012173
108      -0.000000110465
109      -0.000004570213
110       0.000000679803
111       0.000003870003
112      -0.000001049912
113       0.000002164057
114      -0.000002530086
115       0.000000745029
116       0.000003189581
117       0.000000151687
118      -0.000002989603
119       0.000001082654
120      -0.000001144748
121      -0.000000000027
122       0.000000000135
123      -0.000000000254
124       0.000000000337
125      -0.000000000134
126       0.000000001858
127       0.000000685065
128       0.000001018568
129      -0.000002303299
130      -0.000003449096
131      -0.000005129865
132       0.000011597243
133       0.000004052135
134       0.000006024713
135      -0.000013624151
136       0.000000715413
137      -0.000000581075
138       0.000001059503
139       0.000000685502
140      -0.000000166865
141      -0.000006118334
142       0.000004898501
143      -0.000009012305
144      -0.000005821152
145       0.000001443342
146      -0.000000470173
147      -0.000000299986
148       0.000001029654
149      -0.000000458041
150      -0.000000731019
151       0.000000065948
152      -0.000000665237
153      -0.000000000061
154       0.000000000311
155      -0.000000000617
156       0.000000001851
157       0.000000003012
158       0.000000004975
159       0.000000457608
160       0.000000681269
161      -0.000001540404
162      -0.000000885843
163      -0.000001320145
164       0.000002984952
165       0.000002161602
166       0.000003217409
167      -0.000007274997
168       0.000001038325
169       0.000002178599
170      -0.000000494376
171      -0.000000802084
172      -0.000000974215
173      -0.000003157275
174      -0.000006652897
175       0.000001521997
176       0.000002455124
177       0.000002969330
178      -0.000001992430
179       0.000002946682
180       0.000000060996
181       0.000002784230
182      -0.000001404243
183       0.000001610881
184       0.000001572594
 Sym=     1a
 Ene= -7.08111000873184E+01
 Spin= Alpha
 Occup= 1.000000
  1       0.015136854228
  2       0.019019995341
  3       0.034590296880
  4       0.071495159907
  5       0.105112805769
  6       0.039272618948
  7      -0.354974434706
  8      -0.694960096919
  9       0.405291214259
 10       0.921099196580
 11       0.053974583472
 12       0.034580679982
 13      -0.023441496919
 14       0.016195978423
 15      -0.011301100862
 16       0.008002369618
 17      -0.002662355065
 18       0.000668438792
 19       0.000032933523
 20      -0.000041916809
 21      -0.000008743601
 22       0.000050931878
 23      -0.000067289970
 24      -0.000014612403
 25       0.000007576016
 26      -0.000000816506
 27       0.000001892096
 28      -0.000119191175
 29       0.000171357723
 30       0.000040336916
 31      -0.000105932869
 32       0.000064899578
 33      -0.000002802449
 34       0.000048945463
 35       0.000045481166
 36       0.000034671483
 37      -0.000091259296
 38      -0.000062724166
 39      -0.000054881619
 40       0.000170940775
 41       0.000095632956
 42       0.000093133378
 43      -0.000326326634
 44      -0.000067674568
 45      -0.000126979711
 46       0.000509571628
 47       0.000907829723
 48       0.000553053479
 49      -0.000078722626
 50      -0.000157756204
 51      -0.000093183143
 52       0.000008645306
 53       0.000032294861
 54       0.000016854213