[Molden Format]
[Title]
 Molden file created by orca_2mkl for BaseName=/home/smirnovaanastasia2304_2125/_scratch/HERBD/Nd_Cl_cc

[Atoms] AU
Nd   1  60          0.2309018569         0.4197913223        -0.6294356499 
Cl   2  17         -1.6651038370        -2.5809709462        -3.8017396979 
Cl   3  17         -1.8714014596         4.6050396007         0.3650213898 
Cl   4  17          4.8721901842        -0.2283809622         0.2288382759 
[GTO]
  1 0
s   6 1.0 
   994735.7959840000      1863.9135210443
   442104.7982150000      -485.8456998776
   196491.0214290000      1100.1532089676
    87329.3428570000       270.9095245490
    38813.0412700000       691.0933671839
    17250.2405640000       543.4710696949
s   1 1.0 
     7666.7735840000       583.9418085366
s   1 1.0 
     3407.4549260000       317.8576600717
s   1 1.0 
     1514.4244120000       173.0197951516
s   1 1.0 
      673.0775160000        94.1800474027
s   1 1.0 
      299.1455630000        51.2651245068
s   1 1.0 
      132.9535830000        27.9051991663
s   1 1.0 
       59.0904820000        15.1896666015
s   1 1.0 
       26.2624360000         8.2682071254
s   1 1.0 
       11.6721940000         4.5006419631
s   1 1.0 
        5.1876420000         2.4498392620
s   1 1.0 
        2.3056190000         1.3335237321
s   1 1.0 
        1.0247190000         0.7258780834
s   1 1.0 
        0.4554310000         0.3951181991
s   1 1.0 
        0.2024140000         0.2150752828
s   1 1.0 
        0.0899620000         0.1170723723
s   1 1.0 
        0.0399830000         0.0637259950
s   1 1.0 
        0.0177700000         0.0346877127
p   5 1.0 
    13410.3010510000      2401.5364004241
     5364.1204200000      1024.5588215214
     2145.6481680000      1626.1321344023
      858.2592670000      1638.1793695256
      343.3037070000      1573.4149290153
p   1 1.0 
      137.3214830000       670.0592301905
p   1 1.0 
       54.9285930000       213.1513959541
p   1 1.0 
       21.9714370000        67.8052256278
p   1 1.0 
        8.7885750000        21.5694050932
p   1 1.0 
        3.5154300000         6.8614066030
p   1 1.0 
        1.4061720000         2.1826703318
p   1 1.0 
        0.5624690000         0.6943258388
p   1 1.0 
        0.2249880000         0.2208712972
p   1 1.0 
        0.0899950000         0.0702607958
p   1 1.0 
        0.0359980000         0.0223505417
p   1 1.0 
        0.0143990000         0.0071097692
d   4 1.0 
      918.9318400000      3603.5190663488
      334.1570330000      3495.8915352391
      121.5116480000      3244.5867394900
       44.1860540000      1718.4301569526
d   1 1.0 
       16.0676560000       367.6097339451
d   1 1.0 
        5.8427840000        62.5971828323
d   1 1.0 
        2.1246490000        10.6591524025
d   1 1.0 
        0.7726000000         1.8150592864
d   1 1.0 
        0.2809450000         0.3090703695
d   1 1.0 
        0.1021620000         0.0526291686
d   1 1.0 
        0.0371500000         0.0089618571
d   1 1.0 
        0.0135090000         0.0015260216
f   4 1.0 
       23.0540210000       712.1519496894
        7.6846740000       187.9678783496
        2.5615580000        24.4339048979
        0.8538530000         1.5279715144
f   1 1.0 
        0.2846180000         0.3373575197
f   1 1.0 
        0.0948730000         0.0284820343

  2 0
s   7 1.0 
    69507.9909450000         4.1142286333
    10426.1568800000         4.2286655222
     2373.2334061000         5.8493829067
      671.5642007100         8.3358677251
      218.4199979000        10.0089622684
       77.5722497100         8.2783277553
       28.8888152800         2.9822029766
s   1 1.0 
      127.1052718500        26.9794296956
s   1 1.0 
       39.3395829600        11.1952141621
s   1 1.0 
        7.6740680000         3.2860890225
s   1 1.0 
        3.8745627600        -1.9682357562
s   1 1.0 
        1.8385832600         1.1253110111
s   1 1.0 
        0.5022905800        -0.4252324193
s   1 1.0 
        0.1796272300         0.1966478587
p   6 1.0 
      666.5042328400        13.1758105786
      157.6424169000        16.0544655669
       50.2625209800        17.4320614645
       18.5360781100        14.3789566857
        7.2940532800         7.6571902731
        2.9433249000         1.9874071930
p   1 1.0 
        1.0404970800         1.4979287975
p   1 1.0 
        0.3845641500        -0.4316692201
p   1 1.0 
        0.1306964300         0.1120133392
d   2 1.0 
        4.6100000000         7.5524217504
        1.0110000000         2.6539585854
d   1 1.0 
        0.3390000000         0.4293579962
f   1 1.0 
        0.7060000000         2.6050175686

  3 0
s   7 1.0 
    69507.9909450000         4.1142286333
    10426.1568800000         4.2286655222
     2373.2334061000         5.8493829067
      671.5642007100         8.3358677251
      218.4199979000        10.0089622684
       77.5722497100         8.2783277553
       28.8888152800         2.9822029766
s   1 1.0 
      127.1052718500        26.9794296956
s   1 1.0 
       39.3395829600        11.1952141621
s   1 1.0 
        7.6740680000         3.2860890225
s   1 1.0 
        3.8745627600        -1.9682357562
s   1 1.0 
        1.8385832600         1.1253110111
s   1 1.0 
        0.5022905800        -0.4252324193
s   1 1.0 
        0.1796272300         0.1966478587
p   6 1.0 
      666.5042328400        13.1758105786
      157.6424169000        16.0544655669
       50.2625209800        17.4320614645
       18.5360781100        14.3789566857
        7.2940532800         7.6571902731
        2.9433249000         1.9874071930
p   1 1.0 
        1.0404970800         1.4979287975
p   1 1.0 
        0.3845641500        -0.4316692201
p   1 1.0 
        0.1306964300         0.1120133392
d   2 1.0 
        4.6100000000         7.5524217504
        1.0110000000         2.6539585854
d   1 1.0 
        0.3390000000         0.4293579962
f   1 1.0 
        0.7060000000         2.6050175686

  4 0
s   7 1.0 
    69507.9909450000         4.1142286333
    10426.1568800000         4.2286655222
     2373.2334061000         5.8493829067
      671.5642007100         8.3358677251
      218.4199979000        10.0089622684
       77.5722497100         8.2783277553
       28.8888152800         2.9822029766
s   1 1.0 
      127.1052718500        26.9794296956
s   1 1.0 
       39.3395829600        11.1952141621
s   1 1.0 
        7.6740680000         3.2860890225
s   1 1.0 
        3.8745627600        -1.9682357562
s   1 1.0 
        1.8385832600         1.1253110111
s   1 1.0 
        0.5022905800        -0.4252324193
s   1 1.0 
        0.1796272300         0.1966478587
p   6 1.0 
      666.5042328400        13.1758105786
      157.6424169000        16.0544655669
       50.2625209800        17.4320614645
       18.5360781100        14.3789566857
        7.2940532800         7.6571902731
        2.9433249000         1.9874071930
p   1 1.0 
        1.0404970800         1.4979287975
p   1 1.0 
        0.3845641500        -0.4316692201
p   1 1.0 
        0.1306964300         0.1120133392
d   2 1.0 
        4.6100000000         7.5524217504
        1.0110000000         2.6539585854
d   1 1.0 
        0.3390000000         0.4293579962
f   1 1.0 
        0.7060000000         2.6050175686

[5D]
[7F]
[9G]
[MO]
 Sym=     1a
 Ene= -1.60739917887273E+03
 Spin= Alpha
 Occup= 1.000000
  1      -0.080655276615
  2      -0.093496085514
  3      -0.170836412533
  4      -0.298998685093
  5      -0.346279670855
  6      -0.176840900977
  7      -0.011065839062
  8      -0.003125089452
  9       0.002272607350
 10      -0.001495990905
 11       0.001012209797
 12      -0.000683344216
 13       0.000457717856
 14      -0.000309809379
 15       0.000203314938
 16      -0.000109686170
 17       0.000037391454
 18      -0.000009538687
 19       0.000000088454
 20       0.000000059749
 21      -0.000000175706
 22      -0.000000085898
 23      -0.000000063107
 24       0.000000175149
 25       0.000000075602
 26       0.000000055651
 27      -0.000000154260
 28      -0.000000095601
 29      -0.000000073460
 30       0.000000197546
 31       0.000000142849
 32       0.000000111610
 33      -0.000000296847
 34      -0.000000232956
 35      -0.000000180427
 36       0.000000483839
 37       0.000000406828
 38       0.000000306691
 39      -0.000000842120
 40      -0.000000715080
 41      -0.000000509057
 42       0.000001470028
 43       0.000000996459
 44       0.000000721327
 45      -0.000002068004
 46      -0.000000676274
 47      -0.000000701153
 48       0.000001537676
 49       0.000000079594
 50      -0.000000054916
 51      -0.000000100164
 52       0.000000008572
 53       0.000000044506
 54      -0.000000037974
 55       0.000000026278
 56      -0.000000022975
 57      -0.000000036506
 58      -0.000000004295
 59       0.000000016104
 60      -0.000000150833
 61       0.000000130241
 62       0.000000210284
 63       0.000000024128
 64      -0.000000093565
 65       0.000000378781
 66      -0.000000327421
 67      -0.000000528023
 68      -0.000000060704
 69       0.000000234751
 70      -0.000000787179
 71       0.000000681971
 72       0.000001098459
 73       0.000000127797
 74      -0.000000486707
 75       0.000001606029
 76      -0.000001395907
 77      -0.000002244954
 78      -0.000000264771
 79       0.000000989877
 80      -0.000002917534
 81       0.000002549385
 82       0.000004085666
 83       0.000000491130
 84      -0.000001788359
 85       0.000002981316
 86      -0.000002593491
 87      -0.000004123807
 88      -0.000000468677
 89       0.000001830527
 90       0.000000000983
 91      -0.000000111454
 92       0.000000017007
 93      -0.000000079113
 94      -0.000000090179
 95      -0.000000094397
 96       0.000000101796
 97       0.000000124921
 98       0.000000028510
 99      -0.000000041502
100       0.000000062116
101       0.000000129006
102       0.000000177544
103      -0.000000088992
104       0.000000230836
105       0.000000379470
106      -0.000000102103
107      -0.000000470036
108      -0.000000985349
109      -0.000001342591
110       0.000000687779
111      -0.000001766975
112      -0.000002886143
113       0.000000777615
114       0.000000815558
115       0.000001404470
116       0.000001974760
117      -0.000001054773
118       0.000002904919
119       0.000004534189
120      -0.000001186258
121      -0.000000102204
122       0.000000116984
123      -0.000000115523
124       0.000000889380
125       0.000001904031
126       0.000001734803
127       0.000000368373
128       0.000004506606
129      -0.000000081678
130      -0.000000140897
131      -0.000000147416
132       0.000000539644
133       0.000000921204
134       0.000000965795
135       0.000000746422
136       0.000001343381
137       0.000001411081
138       0.000000217032
139       0.000000918489
140       0.000001058813
141       0.000000018300
142       0.000000328992
143       0.000000493186
144      -0.000000093876
145       0.000000189995
146      -0.000000327799
147      -0.000001674781
148      -0.000002571511
149       0.000000609066
150      -0.000001272470
151       0.000000416718
152      -0.000000465286
153      -0.000000742365
154       0.000000489559
155      -0.000000981724
156      -0.000000507151
157       0.000000049085
158      -0.000000098883
159       0.000000113153
160      -0.000000111627
161       0.000000857455
162       0.000001829576
163       0.000001654990
164       0.000000372027
165       0.000004644552
166      -0.000000096065
167       0.000000192331
168       0.000000045526
169       0.000000615781
170      -0.000001233060
171      -0.000000291253
172       0.000000839533
173      -0.000001699561
174      -0.000000390755
175       0.000000571961
176      -0.000001374319
177      -0.000000168702
178      -0.000000321566
179      -0.000000013036
180       0.000000280745
181      -0.000000260396
182      -0.000000414249
183       0.000001545514
184       0.000000296540
185      -0.000001257399
186       0.000001477158
187       0.000002167661
188      -0.000000455568
189       0.000000319156
190      -0.000000666502
191      -0.000000373522
192      -0.000000472121
193      -0.000001135900
194       0.000000192254
195      -0.000000101401
196       0.000000116060
197      -0.000000114592
198       0.000000881881
199       0.000001886864
200       0.000001716623
201       0.000000359193
202       0.000004490256
203       0.000000213666
204      -0.000000033956
205       0.000000035039
206      -0.000001396803
207       0.000000218503
208      -0.000000231987
209      -0.000002013135
210       0.000000333457
211      -0.000000302111
212      -0.000001367613
213       0.000000329111
214       0.000000072121
215      -0.000000326581
216       0.000000236100
217       0.000000080711
218       0.000000452567
219      -0.000000157457
220       0.000001637789
221      -0.000001162933
222      -0.000000135516
223      -0.000002587413
224       0.000000815018
225      -0.000000390038
226      -0.000000788258
227       0.000000097600
228       0.000000496205
229      -0.000000130679
230      -0.000001053973
231       0.000000491750
 Sym=     1a
 Ene= -2.64601450558444E+02
 Spin= Alpha
 Occup= 1.000000
  1      -0.029588589649
  2      -0.037647234442
  3      -0.069945219271
  4      -0.144395749673
  5      -0.206875241997
  6      -0.096538110997
  7       0.451505409196
  8       0.615367782771
  9       0.109973142006
 10       0.003678386499
 11      -0.003115917164
 12       0.002241225827
 13      -0.001668887563
 14       0.001180306060
 15      -0.000781173829
 16       0.000423440901
 17      -0.000144760367
 18       0.000037038504
 19       0.000000404410
 20       0.000000257481
 21      -0.000000860757
 22       0.000000476783
 23       0.000000360609
 24      -0.000001068805
 25       0.000000194114
 26       0.000000102136
 27      -0.000000439678
 28      -0.000000025954
 29      -0.000000208606
 30       0.000000166591
 31      -0.000000322638
 32      -0.000000209563
 33       0.000000643639
 34       0.000000807047
 35       0.000000598129
 36      -0.000001660229
 37      -0.000001495170
 38      -0.000001111175
 39       0.000003087908
 40       0.000002724828
 41       0.000001914333
 42      -0.000005590649
 43      -0.000003881761
 44      -0.000002786100
 45       0.000008045391
 46       0.000002588246
 47       0.000002702975
 48      -0.000005896862
 49      -0.000000297179
 50       0.000000225218
 51       0.000000362259
 52      -0.000000035369
 53      -0.000000176075
 54       0.000000152760
 55      -0.000000801675
 56       0.000000724147
 57       0.000001119556
 58       0.000000156200
 59      -0.000000474519
 60       0.000000673410
 61      -0.000000600434
 62      -0.000000940510
 63      -0.000000122007
 64       0.000000404649
 65      -0.000001217041
 66       0.000001077057
 67       0.000001708154
 68       0.000000222056
 69      -0.000000735210
 70       0.000002942165
 71      -0.000002563725
 72      -0.000004109874
 73      -0.000000490844
 74       0.000001808307
 75      -0.000006254513
 76       0.000005443194
 77       0.000008746366
 78       0.000001037762
 79      -0.000003849883
 80       0.000011414860
 81      -0.000009982423
 82      -0.000015989449
 83      -0.000001928526
 84       0.000006991207
 85      -0.000011533466
 86       0.000010033374
 87       0.000015951007
 88       0.000001812659
 89      -0.000007081089
 90      -0.000000033051
 91       0.000000462916
 92      -0.000000026001
 93       0.000000315081
 94       0.000000336032
 95       0.000000370608
 96      -0.000000399844
 97      -0.000000490397
 98      -0.000000111968
 99       0.000000162783
100      -0.000000270156
101      -0.000000555560
102      -0.000000763668
103       0.000000404106
104      -0.000001022082
105      -0.000001661609
106       0.000000454551
107       0.000001876881
108       0.000003936824
109       0.000005361892
110      -0.000002753547
111       0.000007063961
112       0.000011533219
113      -0.000003109756
114      -0.000003187435
115      -0.000005490153
116      -0.000007718178
117       0.000004125157
118      -0.000011356288
119      -0.000017724171
120       0.000004638022
121       0.000000164966
122      -0.000000240236
123       0.000000404096
124      -0.000003066013
125      -0.000006793140
126      -0.000006254809
127      -0.000001039611
128      -0.000017236641
129       0.000000329852
130       0.000000567516
131       0.000000594744
132      -0.000002123028
133      -0.000003623703
134      -0.000003800443
135      -0.000002882420
136      -0.000005198078
137      -0.000005459626
138      -0.000000759561
139      -0.000003451747
140      -0.000003993622
141      -0.000000084836
142      -0.000001315857
143      -0.000001977484
144       0.000000382596
145      -0.000000773842
146       0.000001295472
147       0.000006576167
148       0.000010105048
149      -0.000002398889
150       0.000005005917
151      -0.000001633694
152       0.000001825875
153       0.000002915344
154      -0.000001924658
155       0.000003856110
156       0.000001993544
157      -0.000000192021
158       0.000000159334
159      -0.000000232022
160       0.000000389966
161      -0.000002951797
162      -0.000006518695
163      -0.000005957752
164      -0.000001075815
165      -0.000017804806
166       0.000000386482
167      -0.000000774326
168      -0.000000182739
169      -0.000002418956
170       0.000004844766
171       0.000001143525
172      -0.000003240228
173       0.000006561047
174       0.000001507901
175      -0.000002145348
176       0.000005192707
177       0.000000616456
178       0.000001284156
179       0.000000063380
180      -0.000001116058
181       0.000001051273
182       0.000001662661
183      -0.000006065691
184      -0.000001171421
185       0.000004931971
186      -0.000005804923
187      -0.000008513013
188       0.000001786171
189      -0.000001250983
190       0.000002612701
191       0.000001462266
192       0.000001853800
193       0.000004455755
194      -0.000000755216
195       0.000000163614
196      -0.000000238266
197       0.000000400730
198      -0.000003039238
199      -0.000006729796
200      -0.000006186750
201      -0.000001007099
202      -0.000017177502
203      -0.000000861461
204       0.000000136091
205      -0.000000141300
206       0.000005494741
207      -0.000000858888
208       0.000000911892
209       0.000007785517
210      -0.000001292608
211       0.000001164142
212       0.000005134290
213      -0.000001256968
214      -0.000000322866
215       0.000001306517
216      -0.000000941887
217      -0.000000310373
218      -0.000001825004
219       0.000000631803
220      -0.000006433234
221       0.000004563879
222       0.000000524298
223       0.000010171793
224      -0.000003204854
225       0.000001530417
226       0.000003094570
227      -0.000000383797
228      -0.000001946592
229       0.000000516242
230       0.000004139840
231      -0.000001932072
 Sym=     1a
 Ene= -2.36769335299736E+02
 Spin= Alpha
 Occup= 1.000000
  1      -0.000000015521
  2      -0.000000016668
  3      -0.000000045961
  4      -0.000000041401
  5      -0.000000185427
  6       0.000000138608
  7      -0.000000251660
  8       0.000001044736
  9      -0.000001100735
 10       0.000002518190
 11      -0.000004449943
 12       0.000007220800
 13      -0.000011723091
 14       0.000016649525
 15      -0.000012189529
 16      -0.000001500411
 17       0.000001542997
 18      -0.000000399162
 19      -0.158541385394
 20       0.291654168780
 21       0.109530821098
 22      -0.217413954443
 23       0.399956676933
 24       0.150203865028
 25      -0.139897283837
 26       0.257356308301
 27       0.096650260475
 28      -0.008013371706
 29       0.014741498345
 30       0.005536121424
 31      -0.002473257061
 32       0.004549778446
 33       0.001708767302
 34       0.001721205840
 35      -0.003166277362
 36      -0.001189260413
 37      -0.001050863838
 38       0.001933064297
 39       0.000726284048
 40       0.000679211568
 41      -0.001249329445
 42      -0.000469843178
 43      -0.000450994619
 44       0.000829654973
 45       0.000312430864
 46       0.000249452616
 47      -0.000459318831
 48      -0.000172294700
 49      -0.000091529539
 50       0.000168248666
 51       0.000063303889
 52       0.000025983302
 53      -0.000047781395
 54      -0.000017991347
 55      -0.000000084793
 56       0.000000019382
 57      -0.000000174441
 58      -0.000000180367
 59      -0.000000038890
 60      -0.000000672519
 61      -0.000001723989
 62      -0.000000083896
 63      -0.000001996502
 64      -0.000002177493
 65       0.000002741700
 66       0.000005004117
 67       0.000000877726
 68       0.000007139712
 69       0.000007023865
 70      -0.000006453308
 71      -0.000012267800
 72      -0.000001845749
 73      -0.000016990315
 74      -0.000017000252
 75       0.000013847314
 76       0.000026408244
 77       0.000003981590
 78       0.000036500161
 79       0.000036547049
 80      -0.000024080409
 81      -0.000046352490
 82      -0.000006890494
 83      -0.000063653198
 84      -0.000063930986
 85       0.000016921251
 86       0.000030544768
 87       0.000002510676
 88       0.000042250779
 89       0.000043679229
 90      -0.000000817478
 91      -0.000001330587
 92       0.000000211517
 93      -0.000001782475
 94      -0.000002049609
 95      -0.000000642442
 96      -0.000001123661
 97      -0.000000199974
 98      -0.000001648076
 99      -0.000001606281
100       0.000001832834
101      -0.000003388497
102       0.000001001652
103       0.000003325342
104      -0.000000523052
105       0.000001013210
106       0.000000460336
107      -0.000012670932
108       0.000024854425
109      -0.000007111130
110      -0.000023380603
111       0.000004167042
112      -0.000007150816
113      -0.000002710682
114       0.000010882136
115      -0.000021063036
116       0.000006882176
117       0.000019822145
118      -0.000002807838
119       0.000007617513
120       0.000001216052
121       0.000000369110
122      -0.000000533508
123       0.000000924851
124      -0.000006925341
125      -0.000014863377
126      -0.000012303703
127       0.000009299113
128      -0.000011108554
129       0.000001581145
130       0.000002079483
131       0.000002373400
132      -0.000009677062
133      -0.000013378905
134      -0.000014962355
135      -0.000015168763
136      -0.000024169107
137      -0.000025697233
138      -0.000004429430
139      -0.000005458605
140      -0.000006856465
141      -0.000001769073
142      -0.000004298056
143      -0.000005820545
144       0.000000772417
145      -0.000004491846
146       0.000008402510
147       0.000021747857
148       0.000031244987
149      -0.000006262210
150       0.000021619213
151      -0.000004050760
152       0.000006931082
153       0.000007182740
154      -0.000001147018
155       0.000012659900
156       0.000004709259
157      -0.000003828861
158      -0.000000640384
159       0.000000925278
160      -0.000001602786
161       0.000011970021
162       0.000025596823
163       0.000021014663
164      -0.000015103682
165       0.000027113107
166      -0.000002731871
167       0.000005460539
168       0.000001257092
169       0.000016984956
170      -0.000033906941
171      -0.000007869377
172       0.000028318469
173      -0.000056331386
174      -0.000013326465
175       0.000009498339
176      -0.000018516628
177      -0.000003945293
178      -0.000006686954
179      -0.000002916657
180       0.000004501065
181      -0.000008093372
182      -0.000010531740
183       0.000033428912
184       0.000013475726
185      -0.000023226629
186       0.000039367583
187       0.000051928103
188      -0.000008382593
189       0.000006742669
190      -0.000013091578
191      -0.000006819781
192      -0.000008707928
193      -0.000022042637
194       0.000004075909
195       0.000000328628
196      -0.000000474957
197       0.000000823192
198      -0.000006159632
199      -0.000013204647
200      -0.000010889670
201       0.000008458750
202      -0.000009806657
203      -0.000003096181
204       0.000000223923
205      -0.000000663268
206       0.000019511641
207      -0.000001778158
208       0.000004005150
209       0.000033498391
210      -0.000004816539
211       0.000005951688
212       0.000008708009
213      -0.000000917744
214       0.000001315982
215       0.000002856532
216      -0.000002834255
217       0.000000368837
218      -0.000006760364
219       0.000000650145
220      -0.000016318919
221       0.000013674819
222      -0.000001781308
223       0.000033796467
224      -0.000005799573
225       0.000005032021
226       0.000006537143
227       0.000000175019
228      -0.000007362434
229       0.000000513862
230       0.000011823732
231       0.000000236279
 Sym=     1a
 Ene= -2.36769310382971E+02
 Spin= Alpha
 Occup= 1.000000
  1      -0.000000002157
  2      -0.000000002842
  3      -0.000000004879
  4      -0.000000011619
  5      -0.000000013137
  6      -0.000000011838
  7       0.000000050892
  8       0.000000019045
  9       0.000000041265
 10      -0.000000065043
 11       0.000000109781
 12      -0.000000157549
 13       0.000000186249
 14      -0.000000105926
 15      -0.000000090720
 16       0.000000220769
 17      -0.000000251992
 18       0.000000089784
 19       0.289740959620
 20       0.092867090812
 21       0.172105521553
 22       0.397333214801
 23       0.127352305812
 24       0.236015095635
 25       0.255668065933
 26       0.081946132424
 27       0.151866296113
 28       0.014645386817
 29       0.004694087986
 30       0.008699329572
 31       0.004518817468
 32       0.001448392552
 33       0.002684166473
 34      -0.003143421898
 35      -0.001007581985
 36      -0.001867186067
 37       0.001916736548
 38       0.000614471994
 39       0.001138548787
 40      -0.001235320769
 41      -0.000396224814
 42      -0.000733844294
 43       0.000817708290
 44       0.000262550867
 45       0.000485873723
 46      -0.000452580805
 47      -0.000145206545
 48      -0.000268860951
 49       0.000167085166
 50       0.000053564412
 51       0.000099243475
 52      -0.000047910375
 53      -0.000015370682
 54      -0.000028471745
 55      -0.000000182097
 56      -0.000000101256
 57      -0.000000090540
 58       0.000000143773
 59      -0.000000012218
 60      -0.000001301763
 61      -0.000000166230
 62      -0.000001947359
 63       0.000002582601
 64      -0.000001780783
 65       0.000005026362
 66       0.000001223140
 67       0.000006113444
 68      -0.000008325981
 69       0.000004959379
 70      -0.000011738376
 71      -0.000002702099
 72      -0.000014674418
 73       0.000019901547
 74      -0.000012111446
 75       0.000025235001
 76       0.000005824341
 77       0.000031555371
 78      -0.000042773081
 79       0.000026036361
 80      -0.000044206488
 81      -0.000010151561
 82      -0.000055531169
 83       0.000075162480
 84      -0.000045925415
 85       0.000029244933
 86       0.000006481410
 87       0.000037208483
 88      -0.000050361514
 89       0.000030939746
 90      -0.000000613623
 91       0.000000070392
 92      -0.000001322620
 93       0.000001682967
 94      -0.000001332841
 95      -0.000001228470
 96      -0.000000329057
 97      -0.000001393010
 98       0.000001929163
 99      -0.000001086058
100       0.000002693862
101       0.000001124718
102      -0.000002603443
103      -0.000000211287
104      -0.000002672446
105       0.000001585401
106      -0.000001484381
107      -0.000018647610
108      -0.000008085529
109       0.000019215088
110       0.000001155963
111       0.000019417242
112      -0.000011967277
113       0.000010311602
114       0.000015507880
115       0.000008605401
116      -0.000018214044
117       0.000002406686
118      -0.000015837413
119       0.000009860840
120      -0.000012790311
121       0.000000573106
122      -0.000000828474
123       0.000001436598
124      -0.000010771426
125      -0.000023175248
126      -0.000019381945
127       0.000012529286
128      -0.000022694843
129       0.000002026703
130       0.000003393750
131       0.000003550960
132      -0.000012979681
133      -0.000021256935
134      -0.000022328556
135      -0.000023449746
136      -0.000035474895
137      -0.000037821780
138      -0.000009918488
139      -0.000008117247
140      -0.000010474744
141      -0.000002503763
142      -0.000005447184
143      -0.000009827833
144       0.000003617184
145      -0.000005586633
146       0.000012153230
147       0.000029269722
148       0.000050040993
149      -0.000016683174
150       0.000028942708
151      -0.000006519922
152       0.000006756963
153       0.000013124424
154      -0.000010275050
155       0.000015409634
156       0.000008149254
157       0.000001050832
158       0.000000019333
159      -0.000000027934
160       0.000000048382
161      -0.000000361233
162      -0.000000772210
163      -0.000000633668
164       0.000000449360
165      -0.000000845502
166      -0.000000143406
167      -0.000000245590
168      -0.000000178385
169       0.000000517567
170       0.000001388860
171       0.000000878361
172      -0.000000823693
173       0.000001696685
174       0.000000432682
175       0.000003318751
176       0.000001849074
177       0.000002405933
178      -0.000000491518
179      -0.000000165074
180      -0.000000812146
181       0.000001158250
182      -0.000000163730
183       0.000000870399
184       0.000000263638
185       0.000002571497
186      -0.000003706663
187      -0.000000191003
188       0.000001764577
189       0.000001724932
190      -0.000000725161
191       0.000003352160
192       0.000001241755
193      -0.000001088667
194      -0.000005571762
195      -0.000000590971
196       0.000000854236
197      -0.000001481023
198       0.000011097536
199       0.000023853427
200       0.000019888698
201      -0.000013136743
202       0.000023568163
203       0.000005381666
204      -0.000000813560
205       0.000000936661