[Molden Format]
[Title]
 Molden file created by orca_2mkl for BaseName=/home/nikolayandreadi_2125/_scratch/F1_cc/La_F1_cc

[Atoms] AU
La   1  57          0.0319684970        -0.6096880118        -1.5344349440 
F    2   9         -1.4942518075         2.7650170435        -0.5678948286 
[GTO]
  1 0
s   6 1.0 
   896770.4166840001      1651.3879225806
   398564.6296370000      -424.3379156277
   177139.8353940000       981.7209992710
    78728.8157310000       254.1508058902
    34990.5847690000       631.3809010161
    15551.3710090000       510.6983858205
s   1 1.0 
     6911.7204480000       540.2561451421
s   1 1.0 
     3071.8757550000       294.0781969131
s   1 1.0 
     1365.2781130000       160.0758948406
s   1 1.0 
      606.7902730000        87.1342806107
s   1 1.0 
      269.6845660000        47.4298948295
s   1 1.0 
      119.8598070000        25.8175646234
s   1 1.0 
       53.2710250000        14.0533020960
s   1 1.0 
       23.6760110000         7.6496487145
s   1 1.0 
       10.5226720000         4.1639414790
s   1 1.0 
        4.6767430000         2.2665626135
s   1 1.0 
        2.0785520000         1.2337602184
s   1 1.0 
        0.9238010000         0.6715740606
s   1 1.0 
        0.4105780000         0.3655584678
s   1 1.0 
        0.1824790000         0.1989847352
s   1 1.0 
        0.0811020000         0.1083137932
s   1 1.0 
        0.0360450000         0.0589581523
s   1 1.0 
        0.0160200000         0.0320927532
p   5 1.0 
    11986.2753990000      1952.3955328819
     4794.5101600000       868.3218153489
     1917.8040640000      1380.7954515787
      767.1216260000      1418.4854178134
      306.8486500000      1371.3064850729
p   1 1.0 
      122.7394600000       582.3315874344
p   1 1.0 
       49.0957840000       185.2445063692
p   1 1.0 
       19.6383140000        58.9278149325
p   1 1.0 
        7.8553250000        18.7454247406
p   1 1.0 
        3.1421300000         5.9630750378
p   1 1.0 
        1.2568520000         1.8969036124
p   1 1.0 
        0.5027410000         0.6034210674
p   1 1.0 
        0.2010960000         0.1919527675
p   1 1.0 
        0.0804390000         0.0610623363
p   1 1.0 
        0.0321750000         0.0194239827
p   1 1.0 
        0.0128700000         0.0061789299
d   4 1.0 
      797.4623660000      2851.7582730738
      289.9863150000      2782.3795269653
      105.4495690000      2564.2627723646
       38.3452980000      1335.5791852544
d   1 1.0 
       13.9437450000       286.8362852208
d   1 1.0 
        5.0704530000        48.8429533307
d   1 1.0 
        1.8438010000         8.3170567414
d   1 1.0 
        0.6704730000         1.4162416004
d   1 1.0 
        0.2438080000         0.2411592915
d   1 1.0 
        0.0886580000         0.0410654382
d   1 1.0 
        0.0322390000         0.0069925860
d   1 1.0 
        0.0117230000         0.0011906604
f   4 1.0 
        9.8326290000       117.1346343507
        3.2775430000        21.9421048206
        1.0925140000         1.8043818570
        0.3641710000         0.4166094652
f   1 1.0 
        0.1213900000        -0.0495920008
f   1 1.0 
        0.0404630000         0.0041867859

  2 0
s   6 1.0 
    35479.1004410000         1.9229128581
     5318.4728983000         2.2734773358
     1210.4810975000         3.4747482552
      342.8551814000         5.2879612972
      112.0194318100         7.1666332516
       40.7147402500         7.7556346254
s   1 1.0 
       16.0396781100         5.7122450312
s   1 1.0 
        6.5038186700         2.9025947842
s   1 1.0 
        1.5440477500         0.9872011154
s   1 1.0 
        0.6122345300        -0.4932856223
s   1 1.0 
        0.2402798000         0.2445952611
p   4 1.0 
       80.2339004800         4.2755032106
       18.5940107400         4.7314752302
        5.6867902700         4.0864798013
        1.9511006300         2.2989954518
p   1 1.0 
        0.6697021100         0.8635593126
p   1 1.0 
        0.2165130000         0.2105208234
d   1 1.0 
        3.1070000000        20.7284714039
d   1 1.0 
        0.8550000000         2.1672588463
f   1 1.0 
        1.9170000000        24.6547062912

[5D]
[7F]
[9G]
[MO]
 Sym=     1a
 Ene= -1.43624033675047E+03
 Spin= Alpha
 Occup= 2.000000
  1      -0.076248305041
  2      -0.090372754665
  3      -0.168563890260
  4      -0.298348204656
  5      -0.349937193585
  6      -0.180042452110
  7      -0.011724644558
  8      -0.003057057236
  9       0.002215717608
 10      -0.001452183374
 11       0.000980843678
 12      -0.000655655921
 13       0.000428047713
 14      -0.000275365378
 15       0.000170150803
 16      -0.000094104557
 17       0.000042531881
 18      -0.000011617166
 19       0.000000048371
 20      -0.000000106958
 21      -0.000000030635
 22       0.000000208269
 23      -0.000000460512
 24      -0.000000131893
 25      -0.000000099563
 26       0.000000220149
 27       0.000000063052
 28       0.000000144805
 29      -0.000000320185
 30      -0.000000091703
 31      -0.000000211755
 32       0.000000468223
 33       0.000000134102
 34       0.000000327795
 35      -0.000000724804
 36      -0.000000207589
 37      -0.000000555053
 38       0.000001227307
 39       0.000000351510
 40       0.000000899592
 41      -0.000001989135
 42      -0.000000569703
 43      -0.000001101555
 44       0.000002435706
 45       0.000000697604
 46       0.000000246108
 47      -0.000000544183
 48      -0.000000155858
 49       0.000000152332
 50      -0.000000336830
 51      -0.000000096471
 52      -0.000000055235
 53       0.000000122133
 54       0.000000034980
 55      -0.000000010328
 56      -0.000000004454
 57       0.000000009848
 58      -0.000000013676
 59      -0.000000015551
 60      -0.000000031166
 61      -0.000000013440
 62       0.000000029719
 63      -0.000000041270
 64      -0.000000046928
 65       0.000000107130
 66       0.000000046199
 67      -0.000000102153
 68       0.000000141860
 69       0.000000161306
 70      -0.000000218089
 71      -0.000000094050
 72       0.000000207959
 73      -0.000000288792
 74      -0.000000328378
 75       0.000000430055
 76       0.000000185459
 77      -0.000000410079
 78       0.000000569477
 79       0.000000647538
 80      -0.000000714048
 81      -0.000000307930
 82       0.000000680880
 83      -0.000000945537
 84      -0.000001075147
 85       0.000000222412
 86       0.000000095914
 87      -0.000000212080
 88       0.000000294516
 89       0.000000334887
 90       0.000000094818
 91       0.000000040890
 92      -0.000000090414
 93       0.000000125557
 94       0.000000142768
 95      -0.000000036165
 96      -0.000000015596
 97       0.000000034485
 98      -0.000000047890
 99      -0.000000054454
100      -0.000000107366
101       0.000000052754
102      -0.000000116648
103      -0.000000095890
104      -0.000000109034
105      -0.000000217233
106       0.000000066394
107       0.000000094076
108      -0.000000046224
109       0.000000102209
110       0.000000084021
111       0.000000095538
112       0.000000190344
113      -0.000000058176
114       0.000000153874
115      -0.000000075606
116       0.000000167177
117       0.000000137427
118       0.000000156265
119       0.000000311333
120      -0.000000095154
121       0.000000028067
122      -0.000000115176
123       0.000000167531
124       0.000000276038
125       0.000001645566
126       0.000000595885
127      -0.000000049580
128       0.000000109629
129       0.000000031399
130      -0.000000447153
131       0.000000988724
132       0.000000283178
133      -0.000000454902
134       0.000001005857
135       0.000000288085
136       0.000000141182
137       0.000000060884
138      -0.000000134624
139       0.000000186952
140       0.000000212579
141      -0.000000145738
142      -0.000000062849
143       0.000000138968
144      -0.000000192985
145      -0.000000219439
146       0.000000211250
147      -0.000000103798
148       0.000000229513
149       0.000000188670
150       0.000000214532
151       0.000000427422
152      -0.000000130635
 Sym=     1a
 Ene= -2.32759234138056E+02
 Spin= Alpha
 Occup= 2.000000
  1      -0.027611915202
  2      -0.035819516249
  3      -0.068059279295
  4      -0.142040069690
  5      -0.207613687978
  6      -0.104971734819
  7       0.438709069572
  8       0.623292687078
  9       0.118992916805
 10       0.003445160142
 11      -0.002696501468
 12       0.001929055403
 13      -0.001435403686
 14       0.000970756213
 15      -0.000605687952
 16       0.000338451931
 17      -0.000153479351
 18       0.000041985172
 19      -0.000018237142
 20       0.000040325059
 21       0.000011549370
 22      -0.000025986829
 23       0.000057460784
 24       0.000016457161
 25      -0.000020962334
 26       0.000046350871
 27       0.000013275206
 28      -0.000001773331
 29       0.000003921103
 30       0.000001123032
 31      -0.000000332619
 32       0.000000735469
 33       0.000000210643
 34      -0.000000844814
 35       0.000001868012
 36       0.000000535012
 37       0.000001667823
 38      -0.000003687812
 39      -0.000001056217
 40      -0.000002946806
 41       0.000006515838
 42       0.000001866184
 43       0.000003905039
 44      -0.000008634636
 45      -0.000002473023
 46      -0.000000992547
 47       0.000002194672
 48       0.000000628571
 49      -0.000000510336
 50       0.000001128429
 51       0.000000323190
 52       0.000000188457
 53      -0.000000416708
 54      -0.000000119348
 55       0.000002326342
 56       0.000001003212
 57      -0.000002218227
 58       0.000003080511
 59       0.000003502820
 60      -0.000000244893
 61      -0.000000105606
 62       0.000000233502
 63      -0.000000324282
 64      -0.000000368746
 65       0.000000281127
 66       0.000000121232
 67      -0.000000268056
 68       0.000000372262
 69       0.000000423301
 70       0.000000491602
 71       0.000000212003
 72      -0.000000468774
 73       0.000000650979
 74       0.000000740205
 75      -0.000001414518
 76      -0.000000610005
 77       0.000001348815
 78      -0.000001873096
 79      -0.000002129848
 80       0.000002528480
 81       0.000001090396
 82      -0.000002411032
 83       0.000003348198
 84       0.000003807150
 85      -0.000000864808
 86      -0.000000372945
 87       0.000000824638
 88      -0.000001145173
 89      -0.000001302147
 90      -0.000000316142
 91      -0.000000136335
 92       0.000000301456
 93      -0.000000418633
 94      -0.000000476017
 95       0.000000122712
 96       0.000000052919
 97      -0.000000117012
 98       0.000000162495
 99       0.000000184769
100       0.000000365100
101      -0.000000179392
102       0.000000396664
103       0.000000326076
104       0.000000370772
105       0.000000738707
106      -0.000000225775
107      -0.000000341008
108       0.000000167555
109      -0.000000370490
110      -0.000000304559
111      -0.000000346307
112      -0.000000689963
113       0.000000210877
114      -0.000000559950
115       0.000000275132
116      -0.000000608360
117      -0.000000500099
118      -0.000000568651
119      -0.000001132949
120       0.000000346269
121      -0.000000054477
122       0.000000294446
123      -0.000000393959
124      -0.000001390381
125      -0.000006361369
126      -0.000002803439
127       0.000000134261
128      -0.000000296871
129      -0.000000085026
130       0.000001643998
131      -0.000003635128
132      -0.000001041127
133       0.000001529639
134      -0.000003382264
135      -0.000000968705
136      -0.000000481700
137      -0.000000207731
138       0.000000459325
139      -0.000000637864
140      -0.000000725299
141       0.000000467302
142       0.000000201522
143      -0.000000445596
144       0.000000618799
145       0.000000703620
146      -0.000000717854
147       0.000000352718
148      -0.000000779914
149      -0.000000641125
150      -0.000000729007
151      -0.000001452434
152       0.000000443915
 Sym=     1a
 Ene= -2.08685421091371E+02
 Spin= Alpha
 Occup= 2.000000
  1      -0.000000000014
  2      -0.000000000018
  3      -0.000000000036
  4      -0.000000000072
  5      -0.000000000111
  6      -0.000000000045
  7       0.000000000227
  8       0.000000000333
  9       0.000000000013
 10       0.000000000084
 11      -0.000000000148
 12       0.000000000217
 13      -0.000000000323
 14       0.000000000432
 15      -0.000000000151
 16      -0.000000000586
 17       0.000000000284
 18      -0.000000000068
 19      -0.317368217163
 20      -0.135983813883
 21      -0.026355494939
 22      -0.439076875978
 23      -0.188132727075
 24      -0.036462656801
 25      -0.284926266009
 26      -0.122083303346
 27      -0.023661388746
 28      -0.017449448419
 29      -0.007476623070
 30      -0.001449070264
 31      -0.004908051806
 32      -0.002102969313
 33      -0.000407583786
 34       0.003386407916
 35       0.001450985543
 36       0.000281220552
 37      -0.002001943363
 38      -0.000857779493
 39      -0.000166249234
 40       0.001200044651
 41       0.000514187429
 42       0.000099656474
 43      -0.000697629790
 44      -0.000298916180
 45      -0.000057934015
 46       0.000385005446
 47       0.000164964256
 48       0.000031972271
 49      -0.000185001008
 50      -0.000079267816
 51      -0.000015363157
 52       0.000058825695
 53       0.000025205188
 54       0.000004885101
 55      -0.000000510756
 56      -0.000003085527
 57      -0.000002551273
 58       0.000010920268
 59      -0.000009996457
 60       0.000000077823
 61       0.000000470122
 62       0.000000388718
 63      -0.000001663845
 64       0.000001523096
 65      -0.000000027084
 66      -0.000000163574
 67      -0.000000135241
 68       0.000000578898
 69      -0.000000529947
 70      -0.000000021417
 71      -0.000000129515
 72      -0.000000107120
 73       0.000000458444
 74      -0.000000419599
 75       0.000000073914
 76       0.000000446821
 77       0.000000369523
 78      -0.000001581529
 79       0.000001447596
 80      -0.000000127756
 81      -0.000000772427
 82      -0.000000638830
 83       0.000002734084
 84      -0.000002502485
 85       0.000000076002
 86       0.000000458757
 87       0.000000379235
 88      -0.000001623432
 89       0.000001486281
 90      -0.000000001730
 91      -0.000000010215
 92      -0.000000008392
 93       0.000000036036
 94      -0.000000033100
 95      -0.000000000661
 96      -0.000000004069
 97      -0.000000003382
 98       0.000000014438
 99      -0.000000013181
100       0.000000035065
101       0.000000193445
102       0.000000027085
103       0.000000354732
104      -0.000000240403
105      -0.000000310570
106      -0.000000948259
107      -0.000000026543
108      -0.000000146158
109      -0.000000020517
110      -0.000000268100
111       0.000000181618
112       0.000000234596
113       0.000000716600
114      -0.000000040663
115      -0.000000224278
116      -0.000000031411
117      -0.000000411286
118       0.000000278717
119       0.000000360061
120       0.000001099427
121      -0.000000000006
122       0.000000000028
123      -0.000000000051
124       0.000000000080
125       0.000000000144
126       0.000000000619
127      -0.000002196617
128      -0.000000941203
129      -0.000000182419
130       0.000007952165
131       0.000003407197
132       0.000000660353
133      -0.000004610833
134      -0.000001976014
135      -0.000000383009
136       0.000000083898
137       0.000000506874
138       0.000000419118
139      -0.000001793939
140       0.000001642161
141      -0.000000324346
142      -0.000001959353
143      -0.000001620078
144       0.000006934477
145      -0.000006347882
146      -0.000000031665
147      -0.000000174677
148      -0.000000024459
149      -0.000000320317
150       0.000000217078
151       0.000000280436
152       0.000000856263
 Sym=     1a
 Ene= -2.08685421088439E+02
 Spin= Alpha
 Occup= 2.000000
  1       0.000000000018
  2       0.000000000024
  3       0.000000000046
  4       0.000000000093
  5       0.000000000144
  6       0.000000000058
  7      -0.000000000293
  8      -0.000000000430
  9      -0.000000000016
 10      -0.000000000109
 11       0.000000000190
 12      -0.000000000280
 13       0.000000000417
 14      -0.000000000557
 15       0.000000000195
 16       0.000000000756
 17      -0.000000000367
 18       0.000000000088
 19       0.011100104778
 20      -0.090643731874
 21       0.334019904449
 22       0.015356923176
 23      -0.125405016842
 24       0.462114377634
 25       0.009965432060
 26      -0.081377966226
 27       0.299875787794
 28       0.000610302800
 29      -0.004983747745
 30       0.018364986707
 31       0.000171661425
 32      -0.001401791638
 33       0.005165567675
 34      -0.000118441186
 35       0.000967193954
 36      -0.003564086159
 37       0.000070018842
 38      -0.000571776110
 39       0.002106981526
 40      -0.000041971986
 41       0.000342745188
 42      -0.001263008859
 43       0.000024399732
 44      -0.000199250058
 45       0.000734233358
 46      -0.000013465895
 47       0.000109961941
 48      -0.000405205710
 49       0.000006470584
 50      -0.000052838427
 51       0.000194707521
 52      -0.000002057482
 53       0.000016801295
 54      -0.000061912126
 55       0.000006473540
 56      -0.000005777571
 57       0.000012035455
 58       0.000003345195
 59       0.000002035236
 60      -0.000000986333
 61       0.000000880289
 62      -0.000001833759
 63      -0.000000509689
 64      -0.000000310100
 65       0.000000343188
 66      -0.000000306279
 67       0.000000638019
 68       0.000000177350
 69       0.000000107908
 70       0.000000271718
 71      -0.000000242545
 72       0.000000505255
 73       0.000000140386
 74       0.000000085390
 75      -0.000000937424
 76       0.000000836729
 77      -0.000001743024
 78      -0.000000484357
 79      -0.000000294638
 80       0.000001620534
 81      -0.000001446501
 82       0.000003013265
 83       0.000000837290
 84       0.000000509310
 85      -0.000000962513
 86       0.000000858916
 87      -0.000001789234
 88      -0.000000497448
 89      -0.000000302711
 90       0.000000021448
 91      -0.000000019071
 92       0.000000039725
 93       0.000000011127
 94       0.000000006807
 95       0.000000008531
 96      -0.000000007637
 97       0.000000015909
 98       0.000000004395
 99       0.000000002662
100      -0.000000444225
101      -0.000000274034
102       0.000000641818
103      -0.000000424435
104      -0.000000533409
105       0.000000217854
106      -0.000000148894
107       0.000000335747
108       0.000000207050
109      -0.000000484938
110       0.000000320786
111       0.000000403142
112      -0.000000164507
113       0.000000112479
114       0.000000515050
115       0.000000317712
116      -0.000000744118
117       0.000000492104
118       0.000000618451
119      -0.000000252562
120       0.000000172623
121       0.000000000007
122      -0.000000000036
123       0.000000000066
124      -0.000000000104
125      -0.000000000186
126      -0.000000000799
127       0.000000076822
128      -0.000000627366
129       0.000002311877
130      -0.000000278175
131       0.000002271314
132      -0.000008369333
133       0.000000161078
134      -0.000001316518
135       0.000004853034
136      -0.000001063435
137       0.000000949116
138      -0.000001977136
139      -0.000000549521
140      -0.000000334326
141       0.000004110791
142      -0.000003668815
143       0.000007642636
144       0.000002124257
145       0.000001292420
146       0.000000401130
147       0.000000247447
148      -0.000000579548
149       0.000000383260
150       0.000000481661
151      -0.000000196715
152       0.000000134448
 Sym=     1a
 Ene= -2.08684618769867E+02
 Spin= Alpha
 Occup= 2.000000
  1       0.000004028853
  2       0.000005205142
  3       0.000010050515
  4       0.000020493548
  5       0.000031405182
  6       0.000012928362
  7      -0.000064191280
  8      -0.000092460511
  9      -0.000007449897
 10      -0.000020268893
 11       0.000037147745
 12      -0.000054295593
 13       0.000082053624
 14      -0.000111107160
 15       0.000038617824
 16       0.000152724054
 17      -0.000074230994
 18       0.000017830696
 19      -0.138069795482
 20       0.305290412891
 21       0.087435662190
 22      -0.191017295772
 23       0.422364275189
 24       0.120965803463
 25      -0.123955174827
 26       0.274081136802
 27       0.078497275640
 28      -0.007588764820
 29       0.016779753505
 30       0.004805748176
 31      -0.002139558201
 32       0.004730843706
 33       0.001354921269
 34       0.001482895326
 35      -0.003278876111
 36      -0.000939075480
 37      -0.000888166598
 38       0.001963853104
 39       0.000562450881
 40       0.000552778590
 41      -0.001222266552
 42      -0.000350059481
 43      -0.000345604499
 44       0.000764177723
 45       0.000218862251
 46       0.000137421626
 47      -0.000303856596
 48      -0.000087024636
 49      -0.000062748419
 50       0.000138744606
 51       0.000039736454
 52       0.000020371018
 53      -0.000045042880
 54      -0.000012900287
 55      -0.000008118415
 56      -0.000003500995
 57       0.000007741195
 58      -0.000010750277
 59      -0.000012223959
 60       0.000000744879
 61       0.000000321219
 62      -0.000000710258
 63       0.000000986350
 64       0.000001121570
 65       0.000001457455
 66       0.000000628524
 67      -0.000001389765
 68       0.000001929959
 69       0.000002194501
 70      -0.000006301482
 71      -0.000002717486
 72       0.000006008773
 73      -0.000008344381
 74      -0.000009488188
 75       0.000014855458
 76       0.000006406347
 77      -0.000014165401
 78       0.000019671495
 79       0.000022367974
 80      -0.000031497039
 81      -0.000013582951
 82       0.000030033962
 83      -0.000041708163
 84      -0.000047425326
 85      -0.000016412420
 86      -0.000007077788
 87       0.000015650070
 88      -0.000021733233
 89      -0.000024712303
 90       0.000010769792
 91       0.000004644425
 92      -0.000010269530
 93       0.000014261290
 94       0.000016216156
 95      -0.000003455711
 96      -0.000001490260
 97       0.000003295192
 98      -0.000004576031
 99      -0.000005203291
100      -0.000004157603
101       0.000002042847
102      -0.000004517043
103      -0.000003713211
104      -0.000004222201
105      -0.000008412089
106       0.000002571027
107       0.000014999684
108      -0.000007370119
109       0.000016296451
110       0.000013396422
111       0.000015232738
112       0.000030348889
113      -0.000009275685
114       0.000006924455
115      -0.000003402344
116       0.000007523099
117       0.000006184324
118       0.000007032042
119       0.000014010267
120      -0.000004282026
121       0.000001435932
122      -0.000007325841
123       0.000013325556
124      -0.000020846056
125      -0.000037278125
126      -0.000160905730
127      -0.000002062003
128       0.000004559383
129       0.000001305829
130      -0.000005771930
131       0.000012762687
132       0.000003655370
133      -0.000040960735
134       0.000090570369
135       0.000025939989
136       0.000003121630
137       0.000001346184
138      -0.000002976612
139       0.000004133631
140       0.000004700261
141      -0.000002218312
142      -0.000000956618
143       0.000002115206
144      -0.000002937431
145      -0.000003340128
146       0.000004121175
147      -0.000002024948
148       0.000004477466
149       0.000003680677
150       0.000004185207
151       0.000008338385
152      -0.000002548501
 Sym=     1a
 Ene= -5.15407578603453E+01
 Spin= Alpha
 Occup= 2.000000
  1       0.012598266361
  2       0.016523966323
  3       0.031734196488
  4       0.067193976630
  5       0.103977860169
  6       0.051226617240
  7      -0.315270468297
  8      -0.689789993517
  9       0.278455746046
 10       0.958121018857
 11       0.108652143818
 12       0.023984372567
 13      -0.016381460231
 14       0.011239759962
 15      -0.007270242524
 16       0.004088469217
 17      -0.001863782010
 18       0.000511320604
 19       0.000068040260
 20      -0.000150447208
 21      -0.000043089085
 22       0.000106437146
 23      -0.000235348468
 24      -0.000067405371
 25       0.000022181535
 26      -0.000049046714
 27      -0.000014047318
 28      -0.000268354748
 29       0.000593372537
 30       0.000169945853
 31      -0.000175418412
 32       0.000387876426
 33       0.000111090424
 34       0.000007045063
 35      -0.000015577669
 36      -0.000004461536
 37       0.000009483883
 38      -0.000020970328
 39      -0.000006006068
 40      -0.000033142546
 41       0.000073283215
 42       0.000020988852
 43       0.000045595799
 44      -0.000100819259
 45      -0.000028875381
 46      -0.000010927788
 47       0.000024163006
 48       0.000006920465
 49      -0.000006754576
 50       0.000014935389
 51       0.000004277601
 52       0.000002465981
 53      -0.000005452658
 54      -0.000001561680
 55       0.000017290721
 56       0.000007456506
 57      -0.000016487468
 58       0.000022896138
 59       0.000026034675
 60       0.000039700889
 61       0.000017120693
 62      -0.000037856212
 63       0.000052571434
 64       0.000059778114
 65       0.000000935878
 66       0.000000403569
 67      -0.000000892304
 68       0.000001239248
 69       0.000001409203
 70       0.000007784177
 71       0.000003356891
 72      -0.000007422585
 73       0.000010307763
 74       0.000011720714
 75      -0.000017407523
 76      -0.000007506921
 77       0.000016598946
 78      -0.000023050938
 79      -0.000026210635
 80       0.000031906265
 81       0.000013759437
 82      -0.000030424208
 83       0.000042250076
 84       0.000048041499
 85      -0.000011234582
 86      -0.000004844864
 87       0.000010712731
 88      -0.000014876764
 89      -0.000016915995
 90      -0.000003623345
 91      -0.000001562551
 92       0.000003455038
 93      -0.000004798010
 94      -0.000005455698
 95       0.000001413402
 96       0.000000609523
 97      -0.000001347749
 98       0.000001871618
 99       0.000002128171
100       0.000003613392
101      -0.000001775442
102       0.000003925774
103       0.000003227171
104       0.000003669532
105       0.000007310970
106      -0.000002234493
107      -0.000004171403
108       0.000002049625
109      -0.000004532032
110      -0.000003725537
111      -0.000004236215
112      -0.000008440007
113       0.000002579563
114      -0.000006896248
115       0.000003388481
116      -0.000007492447
117      -0.000006159134
118      -0.000007003397
119      -0.000013953189
120       0.000004264585
121      -0.000000360627
122       0.000001302040
123      -0.000001962779
124      -0.000020553931
125      -0.000080176094
126      -0.000029783788
127       0.000001204651
128      -0.000002663667
129      -0.000000762894
130       0.000021705683
131      -0.000047994563
132      -0.000013745992
133       0.000019735110
134      -0.000043637327
135      -0.000012498047
136      -0.000004779505
137      -0.000002061141
138       0.000004557495
139      -0.000006328991
140      -0.000007196537
141       0.000003339019
142       0.000001439937
143      -0.000003183921
144       0.000004421508
145       0.000005027585
146      -0.000007457675
147       0.000003664339
148      -0.000008102411
149      -0.000006660552
150      -0.000007573547
151      -0.000015089125
152       0.000004611768
 Sym=     1a
 Ene= -4.36257492457985E+01
 Spin= Alpha
 Occup= 2.000000
  1      -0.000000000026
  2      -0.000000000034
  3      -0.000000000065
  4      -0.000000000139
  5      -0.000000000211
  6      -0.000000000111
  7       0.000000000677
  8       0.000000001397
  9      -0.000000000605
 10      -0.000000002153
 11       0.000000000417
 12      -0.000000001095
 13       0.000000001621
 14      -0.000000002147
 15       0.000000000765
 16       0.000000002966
 17      -0.000000001453
 18       0.000000000349
 19      -0.163434278116
 20      -0.070117190217
 21      -0.013257106935
 22      -0.256738833415
 23      -0.110147062339
 24      -0.020825583278
 25      -0.027472950431
 26      -0.011786548755
 27      -0.002228491139
 28       0.626914961778
 29       0.268961420609
 30       0.050852726746
 31       0.379738229799
 32       0.162916727280
 33       0.030802781305
 34      -0.013034274328
 35      -0.005592013952
 36      -0.001057286083
 37       0.016666206784
 38       0.007150199727
 39       0.001351893408
 40      -0.009848773855
 41      -0.004225359632
 42      -0.000798891871
 43       0.005730983722
 44       0.002458730393
 45       0.000464874076
 46      -0.003175115056
 47      -0.001362198284
 48      -0.000257551670
 49       0.001530796416
 50       0.000656747129
 51       0.000124171571
 52      -0.000487454488
 53      -0.000209129291
 54      -0.000039540201
 55       0.000006981230
 56       0.000043326426
 57       0.000035392160
 58      -0.000152900368
 59       0.000139835227
 60       0.000008451728
 61       0.000052453049
 62       0.000042847559
 63      -0.000185108758
 64       0.000169291214
 65       0.000001454205
 66       0.000009024777
 67       0.000007372047
 68      -0.000031848645
 69       0.000029127311
 70       0.000000130290
 71       0.000000809307
 72       0.000000661255
 73      -0.000002856392
 74       0.000002611995
 75      -0.000000709043
 76      -0.000004401955
 77      -0.000003596173
 78       0.000015535344
 79      -0.000014207168
 80       0.000001015058
 81       0.000006302991
 82       0.000005149495
 83      -0.000022245060
 84       0.000020342678
 85      -0.000000607133
 86      -0.000003766030
 87      -0.000003075923
 88       0.000013289448
 89      -0.000012154804
 90       0.000000018047
 91       0.000000110777
 92       0.000000090214
 93      -0.000000390333
 94       0.000000357556
 95       0.000000003296
 96       0.000000020850
 97       0.000000017120
 98      -0.000000073773
 99       0.000000067285
100       0.000000098227
101       0.000000554130