[Molden Format]
[Title]
 Molden file created by orca_2mkl for BaseName=/home/smirnovaanastasia2304_2125/_scratch/O2_cc/La_O2_cc

[Atoms] AU
La   1  57         -0.5496759789        -0.3016078499        -1.6176320268 
O    2   8         -1.7807890915         2.8603386092        -0.5853218830 
O    3   8          3.5054041839        -0.8971210259        -0.6750328518 
[GTO]
  1 0
s   6 1.0 
   896770.4166840001      1651.3879225806
   398564.6296370000      -424.3379156277
   177139.8353940000       981.7209992710
    78728.8157310000       254.1508058902
    34990.5847690000       631.3809010161
    15551.3710090000       510.6983858205
s   1 1.0 
     6911.7204480000       540.2561451421
s   1 1.0 
     3071.8757550000       294.0781969131
s   1 1.0 
     1365.2781130000       160.0758948406
s   1 1.0 
      606.7902730000        87.1342806107
s   1 1.0 
      269.6845660000        47.4298948295
s   1 1.0 
      119.8598070000        25.8175646234
s   1 1.0 
       53.2710250000        14.0533020960
s   1 1.0 
       23.6760110000         7.6496487145
s   1 1.0 
       10.5226720000         4.1639414790
s   1 1.0 
        4.6767430000         2.2665626135
s   1 1.0 
        2.0785520000         1.2337602184
s   1 1.0 
        0.9238010000         0.6715740606
s   1 1.0 
        0.4105780000         0.3655584678
s   1 1.0 
        0.1824790000         0.1989847352
s   1 1.0 
        0.0811020000         0.1083137932
s   1 1.0 
        0.0360450000         0.0589581523
s   1 1.0 
        0.0160200000         0.0320927532
p   5 1.0 
    11986.2753990000      1952.3955328819
     4794.5101600000       868.3218153489
     1917.8040640000      1380.7954515787
      767.1216260000      1418.4854178134
      306.8486500000      1371.3064850729
p   1 1.0 
      122.7394600000       582.3315874344
p   1 1.0 
       49.0957840000       185.2445063692
p   1 1.0 
       19.6383140000        58.9278149325
p   1 1.0 
        7.8553250000        18.7454247406
p   1 1.0 
        3.1421300000         5.9630750378
p   1 1.0 
        1.2568520000         1.8969036124
p   1 1.0 
        0.5027410000         0.6034210674
p   1 1.0 
        0.2010960000         0.1919527675
p   1 1.0 
        0.0804390000         0.0610623363
p   1 1.0 
        0.0321750000         0.0194239827
p   1 1.0 
        0.0128700000         0.0061789299
d   4 1.0 
      797.4623660000      2851.7582730738
      289.9863150000      2782.3795269653
      105.4495690000      2564.2627723646
       38.3452980000      1335.5791852544
d   1 1.0 
       13.9437450000       286.8362852208
d   1 1.0 
        5.0704530000        48.8429533307
d   1 1.0 
        1.8438010000         8.3170567414
d   1 1.0 
        0.6704730000         1.4162416004
d   1 1.0 
        0.2438080000         0.2411592915
d   1 1.0 
        0.0886580000         0.0410654382
d   1 1.0 
        0.0322390000         0.0069925860
d   1 1.0 
        0.0117230000         0.0011906604
f   4 1.0 
        9.8326290000       117.1346343507
        3.2775430000        21.9421048206
        1.0925140000         1.8043818570
        0.3641710000         0.4166094652
f   1 1.0 
        0.1213900000        -0.0495920008
f   1 1.0 
        0.0404630000         0.0041867859

  2 0
s   6 1.0 
    27032.3826310000         1.4645050749
     4052.3871392000         1.8244031008
      922.3272271000         2.8547160967
      261.2407098900         4.3654874290
       85.3546413500         5.8940772662
       31.0350352400         6.2963020147
s   1 1.0 
       12.2608607300         4.6698272139
s   1 1.0 
        4.9987076000         2.3826123703
s   1 1.0 
        1.1703108200         0.8019291632
s   1 1.0 
        0.4647474100        -0.4011648063
s   1 1.0 
        0.1850453600         0.2010799377
p   4 1.0 
       63.2749548000         3.0898340730
       14.6270493800         3.3923831935
        4.4501223500         2.9482801524
        1.5275799600         1.7113350234
p   1 1.0 
        0.5293511800         0.6436057935
p   1 1.0 
        0.1747842100         0.1610897223
d   1 1.0 
        2.3140000000        12.3767310624
d   1 1.0 
        0.6450000000         1.3234257612
f   1 1.0 
        1.4280000000        12.7097950062

  3 0
s   6 1.0 
    27032.3826310000         1.4645050749
     4052.3871392000         1.8244031008
      922.3272271000         2.8547160967
      261.2407098900         4.3654874290
       85.3546413500         5.8940772662
       31.0350352400         6.2963020147
s   1 1.0 
       12.2608607300         4.6698272139
s   1 1.0 
        4.9987076000         2.3826123703
s   1 1.0 
        1.1703108200         0.8019291632
s   1 1.0 
        0.4647474100        -0.4011648063
s   1 1.0 
        0.1850453600         0.2010799377
p   4 1.0 
       63.2749548000         3.0898340730
       14.6270493800         3.3923831935
        4.4501223500         2.9482801524
        1.5275799600         1.7113350234
p   1 1.0 
        0.5293511800         0.6436057935
p   1 1.0 
        0.1747842100         0.1610897223
d   1 1.0 
        2.3140000000        12.3767310624
d   1 1.0 
        0.6450000000         1.3234257612
f   1 1.0 
        1.4280000000        12.7097950062

[5D]
[7F]
[9G]
[MO]
 Sym=     1a
 Ene= -1.43612426808483E+03
 Spin= Alpha
 Occup= 1.000000
  1       0.076248366008
  2       0.090372851497
  3       0.168564037805
  4       0.298348551232
  5       0.349937479561
  6       0.180041833447
  7       0.011723683363
  8       0.003058045063
  9      -0.002217009970
 10       0.001454349914
 11      -0.000984267144
 12       0.000660793496
 13      -0.000435090716
 14       0.000282288824
 15      -0.000176170022
 16       0.000102216518
 17      -0.000043237032
 18       0.000011612691
 19      -0.000000684346
 20      -0.000000150633
 21      -0.000000270146
 22       0.000000297625
 23       0.000000953797
 24       0.000000510351
 25      -0.000000235814
 26      -0.000000553130
 27      -0.000000314765
 28       0.000000131608
 29       0.000000721808
 30       0.000000358376
 31      -0.000000072210
 32      -0.000001029570
 33      -0.000000476826
 34       0.000000062109
 35       0.000001577213
 36       0.000000716029
 37      -0.000000196952
 38      -0.000002446563
 39      -0.000001140621
 40       0.000000907979
 41       0.000002658484
 42       0.000001445807
 43      -0.000002426043
 44      -0.000000535699
 45      -0.000000958429
 46       0.000005097010
 47       0.000000124289
 48       0.000001570817
 49      -0.000001235251
 50       0.000000466243
 51      -0.000000161156
 52       0.000000296938
 53      -0.000000164623
 54       0.000000015501
 55      -0.000000004430
 56      -0.000000006705
 57       0.000000008319
 58      -0.000000016444
 59      -0.000000010397
 60       0.000000100145
 61       0.000000005171
 62      -0.000000078240
 63       0.000000049324
 64       0.000000117397
 65      -0.000000305494
 66      -0.000000014195
 67       0.000000235752
 68      -0.000000144574
 69      -0.000000357959
 70       0.000000618396
 71       0.000000024381
 72      -0.000000476857
 73       0.000000287104
 74       0.000000719251
 75      -0.000001052367
 76       0.000000063627
 77       0.000000702267
 78      -0.000000214878
 79      -0.000001158905
 80       0.000000788708
 81      -0.000000454418
 82      -0.000000102207
 83      -0.000000900025
 84       0.000000617620
 85      -0.000001862709
 86       0.000001197894
 87      -0.000000005706
 88       0.000002613641
 89      -0.000001456345
 90       0.000000203487
 91      -0.000000301858
 92       0.000000165090
 93      -0.000000712374
 94       0.000000044776
 95      -0.000000035971
 96       0.000000083608
 97      -0.000000060327
 98       0.000000204287
 99       0.000000010998
100      -0.000000046612
101       0.000000242745
102      -0.000000169406
103      -0.000000363486
104      -0.000000106625
105       0.000000011072
106       0.000000029614
107       0.000000297851
108       0.000000499161
109      -0.000000073203
110      -0.000000584576
111       0.000000141013
112       0.000000807025
113      -0.000000221083
114      -0.000000212780
115      -0.000000043584
116      -0.000000116108
117      -0.000000056623
118      -0.000000172412
119      -0.000000405426
120       0.000000178239
121      -0.000000061378
122       0.000000299951
123      -0.000000615698
124       0.000001477506
125      -0.000000872323
126      -0.000003443418
127       0.000000300380
128      -0.000000674481
129      -0.000000208971
130      -0.000000317857
131       0.000000467010
132       0.000000112015
133       0.000000352200
134       0.000000286466
135       0.000000231440
136      -0.000000226586
137      -0.000000112118
138       0.000000264443
139      -0.000000349530
140      -0.000000338594
141       0.000000901326
142       0.000000442359
143      -0.000001058903
144       0.000001395887
145       0.000001337771
146      -0.000000608070
147       0.000000206995
148      -0.000000522646
149      -0.000000616233
150      -0.000000585100
151      -0.000001035094
152       0.000000490966
153       0.000000059994
154      -0.000000288280
155       0.000000577729
156      -0.000002199865
157      -0.000004985494
158      -0.000008141329
159       0.000000372379
160      -0.000000042567
161       0.000000091919
162      -0.000002408468
163       0.000000311254
164      -0.000000578618
165       0.000002736722
166      -0.000000335640
167       0.000000665455
168      -0.000000017704
169       0.000000015621
170      -0.000000005759
171       0.000000037681
172      -0.000000012050
173      -0.000000351724
174       0.000000310880
175      -0.000000037429
176       0.000000642223
177      -0.000000189626
178      -0.000000062413
179      -0.000000090104
180       0.000000012367
181       0.000000080266
182      -0.000000027192
183      -0.000000138420
184       0.000000064713
 Sym=     1a
 Ene= -2.32638151652797E+02
 Spin= Alpha
 Occup= 1.000000
  1       0.027611886881
  2       0.035819474556
  3       0.068059317583
  4       0.142039775717
  5       0.207614306030
  6       0.104967702430
  7      -0.438703164847
  8      -0.623295839382
  9      -0.118991352542
 10      -0.003450076766
 11       0.002706191416
 12      -0.001946430067
 13       0.001460254829
 14      -0.000994775796
 15       0.000626629266
 16      -0.000368126779
 17       0.000156101069
 18      -0.000041971833
 19       0.000015733207
 20      -0.000062229813
 21      -0.000022843360
 22       0.000023785368
 23      -0.000087844018
 24      -0.000031777058
 25       0.000019224991
 26      -0.000070462663
 27      -0.000025446040
 28       0.000001885001
 29      -0.000007175603
 30      -0.000002612963
 31       0.000000395116
 32      -0.000000183107
 33       0.000000036529
 34      -0.000000252670
 35      -0.000004537732
 36      -0.000002082061
 37       0.000000602969
 38       0.000007542831
 39       0.000003515312
 40      -0.000003377813
 41      -0.000008308424
 42      -0.000004679149
 43       0.000009177782
 44       0.000001090758
 45       0.000003211880
 46      -0.000018478001
 47      -0.000000598239
 48      -0.000005759931
 49       0.000004496572
 50      -0.000001634587
 51       0.000000614345
 52      -0.000001083987
 53       0.000000587742
 54      -0.000000062435
 55       0.000000931706
 56      -0.000000272852
 57      -0.000001245216
 58       0.000000806058
 59       0.000000351168
 60      -0.000001229867
 61      -0.000000050287
 62       0.000001069588
 63      -0.000000741595
 64      -0.000001355496
 65       0.000001066653
 66       0.000000139168
 67      -0.000001093342
 68       0.000000984296
 69       0.000001192454
 70      -0.000002420373
 71      -0.000000143378
 72       0.000001979758
 73      -0.000001336890
 74      -0.000002804312
 75       0.000003789656
 76      -0.000000270930
 77      -0.000002534023
 78       0.000000732433
 79       0.000004116478
 80      -0.000002797408
 81       0.000001739284
 82       0.000000246421
 83       0.000003501461
 84      -0.000002101124
 85       0.000006897513
 86      -0.000004331005
 87      -0.000000107781
 88      -0.000009377562
 89       0.000005444828
 90      -0.000000810278
 91       0.000001094368
 92      -0.000000539466
 93       0.000002547974
 94      -0.000000241066
 95       0.000000152874
 96      -0.000000303643
 97       0.000000200783
 98      -0.000000730991
 99      -0.000000015946
100       0.000000264765
101      -0.000000896553
102       0.000000687241
103       0.000001384305
104       0.000000470831
105       0.000000131011
106      -0.000000175781
107      -0.000001066698
108      -0.000001794285
109       0.000000263454
110       0.000002090649
111      -0.000000515353
112      -0.000002899155
113       0.000000809220
114       0.000000770696
115       0.000000162901
116       0.000000417082
117       0.000000197318
118       0.000000621086
119       0.000001468453
120      -0.000000644147
121       0.000000195865
122      -0.000001105274
123       0.000002289715
124      -0.000005370332
125       0.000003217806
126       0.000013674321
127      -0.000001126950
128       0.000002524438
129       0.000000781336
130       0.000001190435
131      -0.000001832333
132      -0.000000456356
133      -0.000001058661
134      -0.000001585362
135      -0.000001016007
136       0.000000876482
137       0.000000432710
138      -0.000001027002
139       0.000001356587
140       0.000001305889
141      -0.000003315466
142      -0.000001624483
143       0.000003903508
144      -0.000005143224
145      -0.000004912080
146       0.000002177772
147      -0.000000739291
148       0.000001870013
149       0.000002208166
150       0.000002094711
151       0.000003704583
152      -0.000001762284
153      -0.000000192280
154       0.000000981093
155      -0.000002087689
156       0.000008058462
157       0.000018052186
158       0.000029600378
159      -0.000001427959
160       0.000000160904
161      -0.000000353511
162       0.000008682757
163      -0.000001128510
164       0.000002083138
165      -0.000009997351
166       0.000001211452
167      -0.000002437414
168       0.000000038141
169      -0.000000033827
170       0.000000016136
171      -0.000000086565
172       0.000000028114
173       0.000001311763
174      -0.000001158665
175       0.000000146829
176      -0.000002404353
177       0.000000712816
178       0.000000195796
179       0.000000282849
180      -0.000000038629
181      -0.000000252067
182       0.000000086035
183       0.000000435319
184      -0.000000203351
 Sym=     1a
 Ene= -2.08565011307420E+02
 Spin= Alpha
 Occup= 1.000000
  1       0.000004224511
  2       0.000005434412
  3       0.000010594801
  4       0.000021221272
  5       0.000033438711
  6       0.000012274898
  7      -0.000063107677
  8      -0.000101723301
  9      -0.000002324181
 10      -0.000036284826
 11       0.000065904184
 12      -0.000096697942
 13       0.000133399417
 14      -0.000130180581
 15      -0.000038184821
 16       0.000365422617
 17      -0.000115617095
 18       0.000024952317
 19       0.167601075196
 20       0.255533805590
 21       0.162859931452
 22       0.231871479688
 23       0.353523749863
 24       0.225312129399
 25       0.150464878108
 26       0.229415466747
 27       0.146212224209
 28       0.009216358307
 29       0.014040159538
 30       0.008950510234
 31       0.002589696531
 32       0.003969165099
 33       0.002525625180
 34      -0.001785839053
 35      -0.002759232409
 36      -0.001751438986
 37       0.001054905662
 38       0.001664984692
 39       0.001050104612
 40      -0.000639597457
 41      -0.001036216836
 42      -0.000648505730
 43       0.000379021301
 44       0.000630572522
 45       0.000391605375
 46      -0.000208637378
 47      -0.000173864005
 48      -0.000138943753
 49       0.000093797646
 50       0.000099082487
 51       0.000071716756
 52      -0.000030391185
 53      -0.000033346301
 54      -0.000023786451
 55      -0.000004084943
 56       0.000001253079
 57       0.000016281622
 58      -0.000018512518
 59       0.000005431338
 60      -0.000001132217
 61      -0.000000075634
 62      -0.000000809298
 63       0.000001777209
 64      -0.000002428947
 65       0.000004360052
 66       0.000000112352
 67      -0.000002831645
 68       0.000001217760
 69       0.000005332944
 70      -0.000011625266
 71      -0.000000352435
 72       0.000009906616
 73      -0.000006584240
 74      -0.000012784983
 75       0.000021788594
 76      -0.000001065414
 77      -0.000017508055
 78       0.000008867067
 79       0.000022425445
 80      -0.000031156216
 81       0.000006292513
 82       0.000021299481
 83      -0.000001957641
 84      -0.000028336130
 85      -0.000051814519
 86      -0.000008855329
 87       0.000038279570
 88      -0.000029623469
 89      -0.000070063797
 90       0.000019150436
 91      -0.000000258206
 92      -0.000014386612
 93       0.000007187262
 94       0.000021217760
 95      -0.000005735932
 96       0.000000018838
 97       0.000004453979
 98      -0.000002421982
 99      -0.000006337747
100       0.000000592253
101      -0.000003281572
102       0.000002559807
103       0.000005077571
104       0.000002335063
105       0.000000828770
106      -0.000000953092
107       0.000027590591
108       0.000005368223
109       0.000015206199
110       0.000011007623
111       0.000023734681
112       0.000051628808
113      -0.000026880633
114       0.000008868936
115       0.000002738512
116       0.000003734483
117       0.000000258555
118       0.000004929177
119       0.000015316056
120      -0.000005787349
121       0.000002675185
122      -0.000013952304
123       0.000027451008
124      -0.000069229145
125      -0.000106932642
126      -0.000295796009
127      -0.000004576650
128       0.000014013567
129       0.000004836724
130      -0.000000419247
131      -0.000019605619
132      -0.000008795708
133      -0.000027795358
134       0.000099657157
135       0.000035809309
136       0.000004534881
137       0.000001852407
138      -0.000005000887
139       0.000006136183
140       0.000006460747
141      -0.000013394010
142      -0.000005294349
143       0.000017685749
144      -0.000021971414
145      -0.000016997283
146       0.000008962951
147      -0.000003836209
148       0.000008655912
149       0.000007685604
150       0.000009280012
151       0.000017414896
152      -0.000004953069
153       0.000000205813
154      -0.000000931226
155       0.000001285580
156       0.000001937792
157      -0.000007884043
158      -0.000082335248
159      -0.000001952203
160       0.000002396740
161       0.000000479428
162       0.000015840604
163      -0.000009033475
164       0.000000715730
165       0.000051832586
166       0.000007553238
167       0.000018755567
168      -0.000000541407
169      -0.000000722154
170      -0.000000591588
171       0.000000339059
172      -0.000002171039
173       0.000006098054
174      -0.000001141991
175       0.000002507919
176      -0.000008794780
177       0.000009916696
178       0.000001460191
179       0.000000296049
180       0.000000544151
181      -0.000001931953
182      -0.000000497600
183       0.000002399476
184       0.000001791931
 Sym=     1a
 Ene= -2.08564960874189E+02
 Spin= Alpha
 Occup= 1.000000
  1      -0.000004221280
  2      -0.000005458257
  3      -0.000010527623
  4      -0.000021526099
  5      -0.000032824275
  6      -0.000013796065
  7       0.000068068268
  8       0.000098227849
  9       0.000004328250
 10       0.000021547130
 11      -0.000037922585
 12       0.000052914833
 13      -0.000059541166
 14       0.000027130933
 15       0.000059732462
 16      -0.000230356147
 17       0.000060068690
 18      -0.000014009350
 19       0.289068515250
 20      -0.190652063332
 21       0.001659917910
 22       0.399917192154
 23      -0.263760987086
 24       0.002296506852
 25       0.259518589871
 26      -0.171167623563
 27       0.001488066592
 28       0.015882923469
 29      -0.010468682829
 30       0.000094181617
 31       0.004488455358
 32      -0.002972362544
 33       0.000020444106
 34      -0.003118929190
 35       0.002078236712
 36      -0.000008541130
 37       0.001884321051
 38      -0.001276050767
 39      -0.000003894986
 40      -0.001193572142
 41       0.000825924450
 42       0.000010273277
 43       0.000752355924
 44      -0.000532302643
 45      -0.000011647686
 46      -0.000264027106
 47       0.000069270951
 48      -0.000047898707
 49       0.000124135778
 50      -0.000047824342
 51       0.000015773068
 52      -0.000041320862
 53       0.000017621674
 54      -0.000004497300
 55       0.000009589137
 56       0.000007176373
 57      -0.000004556128
 58       0.000008388305
 59       0.000021674143
 60      -0.000000825724
 61       0.000000366702
 62      -0.000001488712
 63       0.000003033923
 64      -0.000001803424
 65      -0.000000863555
 66      -0.000003411278
 67       0.000005401673
 68      -0.000010899093
 69      -0.000002314026
 70       0.000004025374
 71       0.000010017914
 72      -0.000013731573
 73       0.000028071491
 74       0.000010543277
 75      -0.000004459670
 76      -0.000020769132
 77       0.000024833603
 78      -0.000055684127
 79      -0.000017942081
 80      -0.000001155071
 81       0.000033436816
 82      -0.000033919386
 83       0.000086667954
 84       0.000019379043
 85       0.000033509516
 86       0.000024261526
 87      -0.000047456595
 88       0.000072200481
 89       0.000054596558
 90      -0.000008296087
 91      -0.000011768852
 92       0.000018099067
 93      -0.000033382194
 94      -0.000016854018
 95       0.000002599215
 96       0.000003571062
 97      -0.000005555335
 98       0.000010163993
 99       0.000005204990
100      -0.000005601187
101      -0.000005043043
102      -0.000000636627
103       0.000002536968
104      -0.000003475231
105      -0.000011149935
106       0.000006206653
107      -0.000015102160
108       0.000016720552
109      -0.000019409890
110      -0.000036262425
111      -0.000019149275
112      -0.000019292951
113       0.000017152917
114      -0.000001835366
115       0.000009527763
116      -0.000006899147
117      -0.000011485788
118      -0.000003766224
119      -0.000001159325
120      -0.000001752403
121      -0.000002990077
122       0.000015616666
123      -0.000030764863
124       0.000076045909
125       0.000111435933
126       0.000330261413
127       0.000005938459
128      -0.000015371440
129      -0.000005032219
130      -0.000008416662
131       0.000011543511
132       0.000002601886
133       0.000054251497
134      -0.000113267287
135      -0.000033960397
136      -0.000004876607
137      -0.000002173039
138       0.000006614461
139      -0.000008527704
140      -0.000006391332
141       0.000015371172
142       0.000007093408
143      -0.000018599727
144       0.000024035901
145       0.000021891748
146      -0.000012340069
147       0.000003280564
148      -0.000009344712
149      -0.000013856908
150      -0.000010567595
151      -0.000018006249
152       0.000012124275
153      -0.000000251228
154       0.000001531052
155      -0.000003953415
156       0.000021392201
157       0.000023431728
158      -0.000051393332
159      -0.000007426163
160       0.000000154178
161      -0.000002140263
162       0.000043205068
163      -0.000003160151
164       0.000011451262
165       0.000047343474
166      -0.000018894441
167       0.000005723729
168      -0.000000916844
169       0.000001222766
170       0.000000067072
171       0.000001923370
172       0.000000139317
173       0.000011389048
174      -0.000011584681
175       0.000000754024
176      -0.000021919220
177       0.000003902079
178       0.000000304178
179       0.000001475695
180      -0.000000552243
181      -0.000000555166
182       0.000000658100
183       0.000001145434
184      -0.000001961766
 Sym=     1a
 Ene= -2.08564810519524E+02
 Spin= Alpha
 Occup= 1.000000
  1       0.000000000112
  2       0.000000000145
  3       0.000000000280
  4       0.000000000571
  5       0.000000000873
  6       0.000000000361
  7      -0.000000001791
  8      -0.000000002632
  9      -0.000000000093
 10      -0.000000000630
 11       0.000000001110
 12      -0.000000001555
 13       0.000000001760
 14      -0.000000000826
 15      -0.000000001735
 16       0.000000006770
 17      -0.000000001773
 18       0.000000000413
 19      -0.090890425837
 20      -0.135148323897
 21       0.305589583412
 22      -0.125744436431
 23      -0.186974036864
 24       0.422774891889
 25      -0.081598410206
 26      -0.121331683142
 27       0.274348193889
 28      -0.004997744077
 29      -0.007431330803
 30       0.016803294897
 31      -0.001405233068
 32      -0.002089491296
 33       0.004724638801
 34       0.000970278480
 35       0.001442740163
 36      -0.003262243814
 37      -0.000574031809
 38      -0.000853544444
 39       0.001929990544
 40       0.000344651219
 41       0.000512467432
 42      -0.001158769011
 43      -0.000201060566
 44      -0.000298956317
 45       0.000675990470
 46       0.000111319008
 47       0.000165532979
 48      -0.000374281451
 49      -0.000052724918
 50      -0.000078402316
 51       0.000177274222
 52       0.000016752125
 53       0.000024910374
 54      -0.000056324623
 55       0.000011918626
 56      -0.000007063864
 57       0.000015889602
 58       0.000009865347
 59      -0.000003412302
 60      -0.000001352194
 61       0.000001749136
 62      -0.000002439958
 63      -0.000001683085
 64       0.000000157477
 65       0.000000433982
 66      -0.000001692234
 67       0.000001543416
 68       0.000001213140
 69       0.000000223580
 70       0.000000767149
 71       0.000001429270
 72      -0.000000243793
 73      -0.000000486491
 74      -0.000000676476
 75      -0.000001933053
 76      -0.000001671810
 77      -0.000000682915
 78       0.000000077663
 79       0.000001236682
 80       0.000003508558
 81       0.000001841778
 82       0.000002040980
 83       0.000000568770
 84      -0.000001955131
 85      -0.000002741105
 86      -0.000001838284
 87      -0.000001323913
 88      -0.000000211264
 89       0.000001621424
 90      -0.000000422635
 91      -0.000000618739
 92       0.000000020532
 93       0.000000168229
 94       0.000000332258
 95       0.000000174888
 96       0.000000219450
 97       0.000000016051
 98      -0.000000047737
 99      -0.000000128553
100      -0.000000956149
101       0.000000308477
102       0.000001037332
103       0.000000156973
104      -0.000001112773
105       0.000000468192
106      -0.000000353064
107       0.000000274689
108       0.000000262752
109      -0.000000598470
110       0.000000321596
111       0.000000458388
112      -0.000000043302
113       0.000000445921
114       0.000001606721
115      -0.000001001669
116      -0.000001149636
117      -0.000000854164
118       0.000001671322
119      -0.000000974332
120       0.000000052972
121       0.000000000087
122      -0.000000000455
123       0.000000000896
124      -0.000000002216
125      -0.000000003249
126      -0.000000009626
127      -0.000000434770
128      -0.000000645856
129       0.000001461471
130       0.000003076192
131       0.000004574010
132      -0.000010342902
133      -0.000002120173
134      -0.000003147339
135       0.000007124741
136      -0.000000001609
137      -0.000000008420
138       0.000000003876
139       0.000000004462
140       0.000000002994
141       0.000002789943
142      -0.000002384505
143       0.000004211757
144       0.000002743530
145      -0.000000622343
146      -0.000001437453
147      -0.000000855547
148       0.000002930805
149      -0.000001253211
150      -0.000002203654
151       0.000000278981
152      -0.000001913749
153       0.000000000007
154      -0.000000000045
155       0.000000000114
156      -0.000000000616
157      -0.000000000678
158       0.000000001453
159      -0.000000680417
160      -0.000001012192
161       0.000002288670
162       0.000002004754
163       0.000002983269
164      -0.000006745447
165      -0.000002434780
166      -0.000003618293
167       0.000008182216
168      -0.000001112235
169      -0.000002506911
170       0.000000646176
171       0.000000962461
172       0.000001085474
173       0.000003786234
174       0.000008584772
175      -0.000002233531
176      -0.000003305931
177      -0.000003707629
178       0.000001461591
179      -0.000001906698
180      -0.000000016690
181      -0.000001899121
182       0.000001119897
183      -0.000001205236
184      -0.000000993607
 Sym=     1a
 Ene= -5.14188116650085E+01
 Spin= Alpha
 Occup= 1.000000
  1      -0.012597830082
  2      -0.016523414335
  3      -0.031733050763
  4      -0.067191820928
  5      -0.103973919367
  6      -0.051223629355
  7       0.315256564087
  8       0.689738013317
  9      -0.278336883530
 10      -0.958206401408
 11      -0.108557022592
 12      -0.024185710178
 13       0.016659016609
 14      -0.011523927736
 15       0.007531211298
 16      -0.004458656558
 17       0.001899464493
 18      -0.000512135461
 19      -0.000045748396
 20       0.000250170255
 21       0.000097037436
 22      -0.000071017490
 23       0.000390495758
 24       0.000151584274
 25      -0.000019332303
 26       0.000080743235
 27       0.000029960973
 28       0.000174339322
 29      -0.000987827560
 30      -0.000385038848
 31       0.000139856336
 32      -0.000638811111
 33      -0.000240934244
 34      -0.000012207320
 35       0.000026415838
 36       0.000008052518
 37       0.000020932096
 38       0.000043715148
 39       0.000025559264
 40      -0.000050708927
 41      -0.000080116948
 42      -0.000050514374
 43       0.000115910185
 44      -0.000004102637
 45       0.000032657161
 46      -0.000223438684
 47      -0.000006409114
 48      -0.000069285118
 49       0.000054868438
 50      -0.000021322047
 51       0.000006887687
 52      -0.000013327068
 53       0.000007682389
 54      -0.000000565753