[Molden Format]
[Title]
 Molden file created by orca_2mkl for BaseName=/home/smirnovaanastasia2304_2125/_scratch/HERBD/Ce_OH_cc

[Atoms] AU
Ce   1  58         -0.1392350215         0.3233831641        -0.6670109643 
O    2   8         -1.9074838904         3.9330340902        -0.1340477233 
O    3   8         -2.0764896575        -2.6727001424        -2.6492675384 
O    4   8          3.2659380882        -0.1936742520         1.4855628468 
H    5   1          4.6831193051        -0.3615707498         2.6055525037 
H    6   1         -2.6367329849         5.5712698010         0.1407770381 
H    7   1         -2.9491708553        -4.0244779378        -3.4849875828 
[GTO]
  1 0
s   6 1.0 
   928839.8476080000      1720.3140985147
   412817.7100480000      -444.1821597056
   183474.5377990000      1020.2336346955
    81544.2390220000       259.7896176938
    36241.8840100000       650.9759730419
    16107.5040040000       521.6380289536
s   1 1.0 
     7158.8906690000       554.6824046748
s   1 1.0 
     3181.7291860000       301.9308579294
s   1 1.0 
     1414.1018600000       164.3503420785
s   1 1.0 
      628.4897160000        89.4609949684
s   1 1.0 
      279.3287630000        48.6963977223
s   1 1.0 
      124.1461170000        26.5069615136
s   1 1.0 
       55.1760520000        14.4285622978
s   1 1.0 
       24.5226900000         7.8539145759
s   1 1.0 
       10.8989730000         4.2751295007
s   1 1.0 
        4.8439880000         2.3270857469
s   1 1.0 
        2.1528840000         1.2667052334
s   1 1.0 
        0.9568370000         0.6895068146
s   1 1.0 
        0.4252610000         0.3753200446
s   1 1.0 
        0.1890050000         0.2042984455
s   1 1.0 
        0.0840020000         0.1112057675
s   1 1.0 
        0.0373340000         0.0605324824
s   1 1.0 
        0.0165930000         0.0329498754
p   5 1.0 
    12451.0879550000      2093.6184468688
     4980.4351820000       918.1890284073
     1992.1740730000      1459.1325391631
      796.8696290000      1489.3345987640
      318.7478520000      1436.7756693929
p   1 1.0 
      127.4991410000       610.6947147288
p   1 1.0 
       50.9996560000       194.2670504300
p   1 1.0 
       20.3998630000        61.7979617804
p   1 1.0 
        8.1599450000        19.6584434383
p   1 1.0 
        3.2639780000         6.2535138558
p   1 1.0 
        1.3055910000         1.9892942277
p   1 1.0 
        0.5222360000         0.6328103822
p   1 1.0 
        0.2088950000         0.2013029523
p   1 1.0 
        0.0835580000         0.0640361382
p   1 1.0 
        0.0334230000         0.0203702742
p   1 1.0 
        0.0133690000         0.0064798319
d   4 1.0 
      837.0672260000      3087.2204500310
      304.3880820000      3007.0563312128
      110.6865750000      2778.8369308977
       40.2496640000      1455.8294057635
d   1 1.0 
       14.6362410000       312.2279657221
d   1 1.0 
        5.3222700000        53.1666948838
d   1 1.0 
        1.9353710000         9.0533119406
d   1 1.0 
        0.7037710000         1.5416116227
d   1 1.0 
        0.2559170000         0.2625086217
d   1 1.0 
        0.0930610000         0.0447006239
d   1 1.0 
        0.0338400000         0.0076115517
d   1 1.0 
        0.0123060000         0.0012962079
f   4 1.0 
       22.0128040000       551.2105701769
        7.3376010000       153.4774832704
        2.4458670000        21.6506471485
        0.8152890000         1.5509273827
f   1 1.0 
        0.2717630000         0.3040383153
f   1 1.0 
        0.0905880000         0.0256690083

  2 0
s   6 1.0 
    27032.3826310000         1.4645050749
     4052.3871392000         1.8244031008
      922.3272271000         2.8547160967
      261.2407098900         4.3654874290
       85.3546413500         5.8940772662
       31.0350352400         6.2963020147
s   1 1.0 
       12.2608607300         4.6698272139
s   1 1.0 
        4.9987076000         2.3826123703
s   1 1.0 
        1.1703108200         0.8019291632
s   1 1.0 
        0.4647474100        -0.4011648063
s   1 1.0 
        0.1850453600         0.2010799377
p   4 1.0 
       63.2749548000         3.0898340730
       14.6270493800         3.3923831935
        4.4501223500         2.9482801524
        1.5275799600         1.7113350234
p   1 1.0 
        0.5293511800         0.6436057935
p   1 1.0 
        0.1747842100         0.1610897223
d   1 1.0 
        2.3140000000        12.3767310624
d   1 1.0 
        0.6450000000         1.3234257612
f   1 1.0 
        1.4280000000        12.7097950062

  3 0
s   6 1.0 
    27032.3826310000         1.4645050749
     4052.3871392000         1.8244031008
      922.3272271000         2.8547160967
      261.2407098900         4.3654874290
       85.3546413500         5.8940772662
       31.0350352400         6.2963020147
s   1 1.0 
       12.2608607300         4.6698272139
s   1 1.0 
        4.9987076000         2.3826123703
s   1 1.0 
        1.1703108200         0.8019291632
s   1 1.0 
        0.4647474100        -0.4011648063
s   1 1.0 
        0.1850453600         0.2010799377
p   4 1.0 
       63.2749548000         3.0898340730
       14.6270493800         3.3923831935
        4.4501223500         2.9482801524
        1.5275799600         1.7113350234
p   1 1.0 
        0.5293511800         0.6436057935
p   1 1.0 
        0.1747842100         0.1610897223
d   1 1.0 
        2.3140000000        12.3767310624
d   1 1.0 
        0.6450000000         1.3234257612
f   1 1.0 
        1.4280000000        12.7097950062

  4 0
s   6 1.0 
    27032.3826310000         1.4645050749
     4052.3871392000         1.8244031008
      922.3272271000         2.8547160967
      261.2407098900         4.3654874290
       85.3546413500         5.8940772662
       31.0350352400         6.2963020147
s   1 1.0 
       12.2608607300         4.6698272139
s   1 1.0 
        4.9987076000         2.3826123703
s   1 1.0 
        1.1703108200         0.8019291632
s   1 1.0 
        0.4647474100        -0.4011648063
s   1 1.0 
        0.1850453600         0.2010799377
p   4 1.0 
       63.2749548000         3.0898340730
       14.6270493800         3.3923831935
        4.4501223500         2.9482801524
        1.5275799600         1.7113350234
p   1 1.0 
        0.5293511800         0.6436057935
p   1 1.0 
        0.1747842100         0.1610897223
d   1 1.0 
        2.3140000000        12.3767310624
d   1 1.0 
        0.6450000000         1.3234257612
f   1 1.0 
        1.4280000000        12.7097950062

  5 0
s   3 1.0 
       34.0613410000         0.2556300129
        5.1235746000         0.4613599287
        1.1646626000         0.6811215012
s   1 1.0 
        0.3272304100         0.3083545312
s   1 1.0 
        0.1030724100         0.1296483265
p   1 1.0 
        0.8000000000         1.0784563492

  6 0
s   3 1.0 
       34.0613410000         0.2556300129
        5.1235746000         0.4613599287
        1.1646626000         0.6811215012
s   1 1.0 
        0.3272304100         0.3083545312
s   1 1.0 
        0.1030724100         0.1296483265
p   1 1.0 
        0.8000000000         1.0784563492

  7 0
s   3 1.0 
       34.0613410000         0.2556300129
        5.1235746000         0.4613599287
        1.1646626000         0.6811215012
s   1 1.0 
        0.3272304100         0.3083545312
s   1 1.0 
        0.1030724100         0.1296483265
p   1 1.0 
        0.8000000000         1.0784563492

[5D]
[7F]
[9G]
[MO]
 Sym=     1a
 Ene= -1.49196599130058E+03
 Spin= Alpha
 Occup= 1.000000
  1       0.077686691848
  2       0.091394381061
  3       0.169313727928
  4       0.298568789059
  5       0.348747487372
  6       0.178986792461
  7       0.011504169005
  8       0.003080101706
  9      -0.002236747311
 10       0.001470420967
 11      -0.000997355521
 12       0.000675041862
 13      -0.000454886488
 14       0.000313099835
 15      -0.000205850409
 16       0.000095591486
 17      -0.000033512846
 18       0.000008754202
 19       0.000000064960
 20      -0.000000022521
 21      -0.000000136728
 22      -0.000000060711
 23       0.000000023657
 24       0.000000152371
 25       0.000000056387
 26      -0.000000016602
 27      -0.000000121467
 28      -0.000000074900
 29       0.000000018066
 30       0.000000147902
 31       0.000000115239
 32      -0.000000023935
 33      -0.000000214636
 34      -0.000000190872
 35       0.000000035086
 36       0.000000348676
 37       0.000000341992
 38      -0.000000059970
 39      -0.000000623118
 40      -0.000000632216
 41       0.000000126912
 42       0.000001169501
 43       0.000000992431
 44      -0.000000258645
 45      -0.000001882056
 46      -0.000000441949
 47      -0.000000583736
 48       0.000000679669
 49      -0.000000052263
 50       0.000000111944
 51       0.000000013678
 52       0.000000034410
 53      -0.000000028027
 54      -0.000000041107
 55      -0.000000034148
 56       0.000000175773
 57       0.000000182287
 58      -0.000000036438
 59       0.000000119547
 60       0.000000180104
 61      -0.000000358409
 62      -0.000000277399
 63       0.000000075855
 64      -0.000000020720
 65      -0.000000455163
 66       0.000000746449
 67       0.000000521503
 68      -0.000000154752
 69      -0.000000106807
 70       0.000000957541
 71      -0.000001481100
 72      -0.000000988889
 73       0.000000308163
 74       0.000000321927
 75      -0.000002070325
 76       0.000003162053
 77       0.000002091201
 78      -0.000000655826
 79      -0.000000739561
 80       0.000004235993
 81      -0.000006440351
 82      -0.000004253740
 83       0.000001354319
 84       0.000001559602
 85      -0.000001976539
 86       0.000003566357
 87       0.000002270815
 88      -0.000000963067
 89      -0.000000431379
 90      -0.000000302883
 91       0.000000201754
 92       0.000000129155
 93       0.000000024155
 94      -0.000000249818
 95       0.000000168825
 96      -0.000000190508
 97      -0.000000124655
 98       0.000000022863
 99       0.000000096680
100      -0.000000055024
101       0.000000126874
102      -0.000000209110
103       0.000000289093
104      -0.000000370133
105      -0.000000583512
106       0.000000150435
107       0.000000439941
108      -0.000000999054
109       0.000001615695
110      -0.000002210145
111       0.000002826941
112       0.000004491739
113      -0.000001162614
114      -0.000000254998
115       0.000001050727
116      -0.000001481960
117       0.000002164850
118      -0.000002643250
119      -0.000004108009
120       0.000001041453
121       0.000000056571
122      -0.000000267239
123       0.000000516473
124      -0.000001448933
125      -0.000001395681
126      -0.000007862411
127      -0.000000268455
128       0.000000573956
129       0.000000106867
130       0.000002375666
131      -0.000005102654
132      -0.000000866740
133       0.000003933370
134      -0.000008424186
135      -0.000001136308
136       0.000000017996
137      -0.000000024879
138      -0.000000020846
139      -0.000000008029
140       0.000000012055
141      -0.000000107664
142       0.000000059080
143       0.000000034768
144       0.000000024201
145      -0.000000162094
146       0.000000069310
147      -0.000000049270
148       0.000000132880
149       0.000000039769
150       0.000000089620
151       0.000000213028
152      -0.000000094482
153       0.000000077955
154      -0.000000364850
155       0.000000694989
156      -0.000001899912
157      -0.000002203655
158      -0.000009087687
159      -0.000000345049
160      -0.000000491291
161      -0.000000339068
162       0.000002746910
163       0.000004101977
164       0.000002703516
165       0.000003998773
166       0.000006620524
167       0.000004047575
168       0.000000021699
169      -0.000000073483
170      -0.000000063386
171       0.000000011316
172      -0.000000028658
173      -0.000000035088
174       0.000000291299
175       0.000000310675
176      -0.000000060424
177       0.000000168121
178      -0.000000123406
179      -0.000000005472
180       0.000000018217
181      -0.000000099886
182       0.000000209095
183       0.000000205400
184      -0.000000045282
185       0.000000063210
186      -0.000000297683
187       0.000000572854
188      -0.000001616214
189      -0.000001784284
190      -0.000008228569
191       0.000000547787
192      -0.000000047122
193       0.000000345110
194      -0.000004600121
195       0.000000526683
196      -0.000003130703
197      -0.000006998877
198       0.000001165257
199      -0.000005297205
200       0.000000064071
201      -0.000000023962
202      -0.000000024509
203      -0.000000024420
204       0.000000003971
205      -0.000000379681
206       0.000000101644
207       0.000000029122
208       0.000000263161
209      -0.000000107128
210       0.000000063899
211      -0.000000164272
212       0.000000035022
213      -0.000000208513
214       0.000000042894
215       0.000000120653
216      -0.000000010161
217      -0.000000268301
218       0.000009424197
219       0.000001654625
220      -0.000001889337
221       0.000000191805
222      -0.000001519357
223      -0.000000270366
224       0.000009843328
225       0.000001646803
226       0.000001016307
227      -0.000002300445
228      -0.000000414069
229      -0.000000351761
230       0.000009496891
231       0.000001695687
232       0.000001190748
233       0.000001787535
234       0.000001111174
 Sym=     1a
 Ene= -2.43014531837660E+02
 Spin= Alpha
 Occup= 1.000000
  1      -0.028253892070
  2      -0.036414963236
  3      -0.068680084305
  4      -0.142822976112
  5      -0.207406314965
  6      -0.102231907020
  7       0.442992142117
  8       0.620740128753
  9       0.115954377630
 10       0.003521838620
 11      -0.002860200512
 12       0.002070199525
 13      -0.001575468922
 14       0.001139026862
 15      -0.000755772467
 16       0.000350078038
 17      -0.000123224512
 18       0.000032260181
 19       0.000000326680
 20      -0.000000020363
 21       0.000002777723
 22       0.000000461505
 23      -0.000000005909
 24       0.000003698164
 25       0.000000581216
 26      -0.000000112527
 27       0.000002807293
 28       0.000000317095
 29      -0.000000252629
 30       0.000000364019
 31       0.000000233454
 32       0.000000013435
 33      -0.000000402981
 34      -0.000000622992
 35       0.000000073783
 36       0.000001156964
 37       0.000001219761
 38      -0.000000176467
 39      -0.000002178171
 40      -0.000002343014
 41       0.000000434614
 42       0.000004300596
 43       0.000003747895
 44      -0.000000972754
 45      -0.000007120017
 46      -0.000001588269
 47      -0.000002146054
 48       0.000002474178
 49      -0.000000213555
 50       0.000000409204
 51       0.000000068329
 52       0.000000133786
 53      -0.000000102500
 54      -0.000000159097
 55      -0.000001057717
 56       0.000020004285
 57       0.000022538728
 58      -0.000004229295
 59       0.000018675244
 60       0.000000808362
 61      -0.000001657862
 62      -0.000001465632
 63       0.000000282558
 64      -0.000000289025
 65      -0.000001315829
 66       0.000001636592
 67       0.000000910280
 68      -0.000000339031
 69      -0.000000860379
 70       0.000003462907
 71      -0.000005362164
 72      -0.000003644157
 73       0.000001093841
 74       0.000001107415
 75      -0.000007843387
 76       0.000011982485
 77       0.000007932197
 78      -0.000002478849
 79      -0.000002792424
 80       0.000016190476
 81      -0.000024606831
 82      -0.000016255543
 83       0.000005159624
 84       0.000005960849
 85      -0.000007192245
 86       0.000013018130
 87       0.000008279192
 88      -0.000003531846
 89      -0.000001564344
 90      -0.000001172146
 91       0.000000814511
 92       0.000000522739
 93       0.000000077405
 94      -0.000000945596
 95       0.000000643189
 96      -0.000000730620
 97      -0.000000478015
 98       0.000000089600
 99       0.000000365121
100      -0.000000195759
101       0.000000555156
102      -0.000000887232
103       0.000001254661
104      -0.000001663799
105      -0.000002542572
106       0.000000637055
107       0.000001702200
108      -0.000003917114
109       0.000006313231
110      -0.000008651141
111       0.000011078760
112       0.000017572916
113      -0.000004545443
114      -0.000000955513
115       0.000003931489
116      -0.000005527996
117       0.000008076684
118      -0.000009872018
119      -0.000015336876
120       0.000003884083
121       0.000000197534
122      -0.000000974767
123       0.000002010159
124      -0.000005772874
125      -0.000005423477
126      -0.000028338667
127      -0.000001054475
128       0.000002251295
129       0.000000417178
130       0.000008844779
131      -0.000019006809
132      -0.000003228291
133       0.000014921073
134      -0.000031916362
135      -0.000004320679
136       0.000000132895
137      -0.000000067511
138      -0.000000108300
139       0.000000054003
140       0.000000142742
141      -0.000000647548
142       0.000000138749
143       0.000000248156
144      -0.000000218662
145      -0.000000958508
146       0.000000276248
147      -0.000000204372
148       0.000000542849
149       0.000000155529
150       0.000000359013
151       0.000000871137
152      -0.000000367435
153       0.000000262739
154      -0.000001303161
155       0.000002641671
156      -0.000007425981
157      -0.000008395517
158      -0.000032821235
159      -0.000001347290
160      -0.000001922738
161      -0.000001325750
162       0.000010225135
163       0.000015259626
164       0.000010072275
165       0.000015203227
166       0.000025134620
167       0.000015379382
168       0.000000096902
169      -0.000000328178
170      -0.000000328338
171       0.000000081319
172      -0.000000207688
173      -0.000000199007
174       0.000001294039
175       0.000001496161
176      -0.000000369024
177       0.000000987687
178      -0.000000493829
179      -0.000000014991
180       0.000000081960
181      -0.000000401165
182       0.000000838528
183       0.000000817322
184      -0.000000181042
185       0.000000217659
186      -0.000001076551
187       0.000002208455
188      -0.000006383250
189      -0.000006853187
190      -0.000029694027
191       0.000002148008
192      -0.000000187835
193       0.000001352204
194      -0.000017142824
195       0.000001950470
196      -0.000011642904
197      -0.000026572606
198       0.000004417333
199      -0.000020065998
200       0.000000238211
201      -0.000000203564
202      -0.000000072697
203      -0.000000184949
204       0.000000032313
205      -0.000001412644
206       0.000000804682
207       0.000000048924
208       0.000001312619
209      -0.000000460932
210       0.000000277210
211      -0.000000621990
212       0.000000137617
213      -0.000000845398
214       0.000000182669
215       0.000000502854
216      -0.000000058041
217      -0.000001151646
218       0.000034946091
219       0.000006287942
220      -0.000006901626
221       0.000000695425
222      -0.000005545035
223      -0.000001159092
224       0.000036504347
225       0.000006258410
226       0.000003712783
227      -0.000008406295
228      -0.000001515911
229      -0.000001469252
230       0.000035208327
231       0.000006443431
232       0.000004345378
233       0.000006514940
234       0.000004054261
 Sym=     1a
 Ene= -2.17751773312359E+02
 Spin= Alpha
 Occup= 1.000000
  1      -0.000000148798
  2      -0.000000187673
  3      -0.000000375367
  4      -0.000000706374
  5      -0.000001209984
  6      -0.000000258091
  7       0.000001787115
  8       0.000004043154
  9      -0.000000800585
 10       0.000003275090
 11      -0.000005813606
 12       0.000009045219
 13      -0.000014372466
 14       0.000021873416
 15      -0.000006849495
 16      -0.000050853532
 17       0.000012516259
 18      -0.000004168013
 19      -0.180904208160
 20      -0.217929118607
 21      -0.201082421017
 22      -0.249559723910
 23      -0.300636084266
 24      -0.277395955082
 25      -0.161498514367
 26      -0.194551783131
 27      -0.179512141025
 28      -0.009672042454
 29      -0.011651640430
 30      -0.010751519163
 31      -0.002816767475
 32      -0.003393212800
 33      -0.003129867215
 34       0.001970961574
 35       0.002374277222
 36       0.002188812170
 37      -0.001215659002
 38      -0.001464283931
 39      -0.001347531218
 40       0.000822680100
 41       0.000990613063
 42       0.000907312980
 43      -0.000607634056
 44      -0.000731626769
 45      -0.000665456933
 46       0.000120514407
 47       0.000144627325
 48       0.000143267142
 49      -0.000062410813
 50      -0.000076248160
 51      -0.000073626222
 52       0.000016276582
 53       0.000019842687
 54       0.000019406355
 55      -0.000000647996
 56      -0.000000512632
 57      -0.000000346167
 58      -0.000000288210
 59       0.000000229533
 60       0.000000135029
 61       0.000000066106
 62       0.000002630276
 63      -0.000001997246
 64       0.000003827839
 65      -0.000001178045
 66       0.000001073443
 67      -0.000007085952
 68       0.000005227635
 69      -0.000012054840
 70       0.000002476248
 71      -0.000002295530
 72       0.000017371039
 73      -0.000012852338
 74       0.000028922873
 75      -0.000005834702
 76       0.000005519136
 77      -0.000039504732
 78       0.000029173182
 79      -0.000065913010
 80       0.000013568075
 81      -0.000013125050
 82       0.000087173211
 83      -0.000064575422
 84       0.000146429556
 85       0.000020181416
 86      -0.000002565461
 87       0.000039163889
 88      -0.000030684954
 89       0.000068957572
 90      -0.000005855861
 91      -0.000000238192
 92      -0.000012699391
 93       0.000009797377
 94      -0.000020822364
 95       0.000001956998
 96      -0.000000450208
 97       0.000006147771
 98      -0.000004659401
 99       0.000010255672
100      -0.000005862791
101       0.000001820296
102      -0.000001632119
103       0.000001202931
104       0.000001975993
105      -0.000001593866
106       0.000001414240
107       0.000057270037
108      -0.000020404542
109       0.000009746034
110      -0.000007999298
111      -0.000030404956
112       0.000006969155
113      -0.000009127024
114      -0.000001139454
115       0.000003502781
116       0.000001619987
117       0.000000495453
118       0.000006010917
119       0.000004009157
120      -0.000002838256
121      -0.000000485489
122       0.000002412137
123      -0.000004378552
124       0.000013164079
125       0.000055050340
126       0.000058929329
127      -0.000002526744
128       0.000003189197
129      -0.000000070417
130       0.000022019139
131      -0.000039016005
132      -0.000004088832
133       0.000058261204
134      -0.000148468457
135      -0.000029077722
136       0.000000022808
137      -0.000000357436
138       0.000001282561
139      -0.000001591568
140       0.000000720451
141       0.000000135577
142       0.000001702442
143      -0.000006131259
144       0.000007762502
145      -0.000003362695
146       0.000000457921
147      -0.000001225893
148       0.000002248952
149       0.000000743437
150       0.000000574310
151       0.000002943289
152      -0.000000209431
153       0.000000636393
154      -0.000003092175
155       0.000005299797
156      -0.000017412580
157      -0.000103069029
158      -0.000094835800
159       0.000004779551
160       0.000008152253
161       0.000005097729
162      -0.000049994147
163      -0.000080177268
164      -0.000050473998
165      -0.000174245001
166      -0.000261655690
167      -0.000170026097
168      -0.000000011891
169      -0.000000008240
170       0.000000300152
171      -0.000000310980
172      -0.000000085245
173      -0.000001083940
174       0.000000568739
175      -0.000000324114
176       0.000000488679
177       0.000002006294
178       0.000004880056
179      -0.000000167139
180       0.000000083614
181       0.000002929679
182      -0.000006534691
183      -0.000005327722
184       0.000000494629
185      -0.000000643232
186       0.000003174664
187      -0.000005665617
188       0.000017088219
189       0.000078752064
190       0.000075872078
191       0.000005893362
192      -0.000002294328
193       0.000002614550
194      -0.000060049748
195       0.000013483032
196      -0.000037938092
197      -0.000200378234
198       0.000012243242
199      -0.000153698279
200       0.000001616942
201       0.000001359473
202       0.000000900020
203       0.000000219314
204       0.000001711455
205      -0.000008604017
206      -0.000007402829
207      -0.000004053386
208      -0.000000233758
209      -0.000008003306
210       0.000002460619
211      -0.000002623407
212       0.000000034121
213      -0.000004622900
214       0.000001658719
215       0.000001700389
216      -0.000001431663
217      -0.000002184484
218       0.000173603145
219       0.000055211783
220      -0.000033560149
221       0.000007191866
222      -0.000026234814
223      -0.000001261043
224       0.000109879994
225       0.000034687920
226       0.000013620868
227      -0.000023910032
228      -0.000002242409
229       0.000005337157
230      -0.000250384998
231      -0.000076700011
232      -0.000029320498
233      -0.000046972955
234      -0.000027735163
 Sym=     1a
 Ene= -2.17745174748027E+02
 Spin= Alpha
 Occup= 1.000000
  1       0.000000087890
  2       0.000000115851
  3       0.000000206652
  4       0.000000473188
  5       0.000000594362
  6       0.000000470732
  7      -0.000001879752
  8      -0.000001722312
  9      -0.000000421740
 10       0.000001964202
 11      -0.000003417338
 12       0.000005289825
 13      -0.000008360271
 14       0.000012803375
 15      -0.000005171484
 16      -0.000028138706
 17       0.000009897815
 18      -0.000002807897
 19       0.224823961071
 20      -0.254399893655
 21       0.073450194943
 22       0.310149877344
 23      -0.350950720880
 24       0.101326450348
 25       0.200689413609
 26      -0.227090259346
 27       0.065565181450
 28       0.012007403130
 29      -0.013588120804
 30       0.003924205319
 31       0.003504239789
 32      -0.003963368480
 33       0.001142499225
 34      -0.002446356748
 35       0.002764836055
 36      -0.000794987940
 37       0.001505628108
 38      -0.001697432347
 39       0.000484015240
 40      -0.001011965591
 41       0.001132964301
 42      -0.000315475437
 43       0.000739366112
 44      -0.000818745542
 45       0.000219058482
 46      -0.000167367681
 47       0.000202054299
 48      -0.000076291763
 49       0.000081613264
 50      -0.000098775398
 51       0.000034540286
 52      -0.000022191785
 53       0.000027084379
 54      -0.000009878073
 55       0.000000218169
 56       0.000000849390
 57      -0.000000716895
 58       0.000000257696
 59      -0.000000050834
 60       0.000001283302
 61       0.000003180855
 62      -0.000000744325
 63       0.000003764096
 64       0.000002145069
 65      -0.000004604171
 66      -0.000008733239
 67       0.000002562503
 68      -0.000010778202
 69      -0.000006973554
 70       0.000011009464
 71       0.000021630070
 72      -0.000006057501
 73       0.000026424702
 74       0.000016732661
 75      -0.000025235225
 76      -0.000049221435
 77       0.000013781533
 78      -0.000060297314
 79      -0.000038209375
 80       0.000056190761
 81       0.000108284114
 82      -0.000030623081
 83       0.000133572223
 84       0.000084717135
 85       0.000013320789
 86       0.000031276561
 87      -0.000008418796
 88       0.000047758226
 89       0.000030328036
 90      -0.000004491701
 91      -0.000011085037
 92       0.000003303006
 93      -0.000016542709
 94      -0.000010179467
 95       0.000002990468
 96       0.000006300646
 97      -0.000001818882
 98       0.000008507473
 99       0.000005364212
100       0.000001088178
101       0.000000964406
102      -0.000003862925
103      -0.000005680651
104       0.000000985755
105      -0.000002996219
106      -0.000000601599
107      -0.000007008430
108      -0.000006475435
109       0.000031928526
110       0.000051529505
111      -0.000005538263
112       0.000021996453
113       0.000001659652
114      -0.000000372264
115      -0.000006094896
116      -0.000003499815
117      -0.000011637639
118      -0.000003549578
119       0.000000824863
120       0.000011044727
121      -0.000000571772
122       0.000002772994
123      -0.000004698439
124       0.000014724739
125       0.000090312959
126       0.000082592488
127      -0.000004927273
128       0.000008800728
129       0.000001356026
130       0.000045780992
131      -0.000092552252
132      -0.000014542930
133       0.000134962821
134      -0.000304800834
135      -0.000049726974
136      -0.000000358258
137       0.000000234862
138      -0.000000219878
139      -0.000000425872
140      -0.000000122785
141       0.000001686006
142      -0.000000641743
143       0.000000242264
144       0.000002928473
145       0.000000549334
146       0.000002309498
147      -0.000001954956
148       0.000004324660
149       0.000002221777
150       0.000001971420
151       0.000006443122
152      -0.000002334644
153       0.000000013578
154      -0.000000050177
155       0.000000008941
156      -0.000000342200
157      -0.000009431445
158      -0.000009632101
159       0.000002187881
160      -0.000000099913
161       0.000001442799
162      -0.000012178935
163      -0.000005963297
164      -0.000009153035
165      -0.000004427479
166      -0.000045516296
167      -0.000014723445
168       0.000000795671
169       0.000001247738
170      -0.000000093576
171       0.000002045076
172       0.000000632573
173      -0.000003163583
174      -0.000005289598
175       0.000000484715
176      -0.000008654553
177      -0.000002495868
178       0.000000648630
179      -0.000000186038
180      -0.000000558611
181      -0.000000471960
182      -0.000001233271
183      -0.000000392867
184       0.000001011259
185       0.000000307588
186      -0.000001448774
187       0.000002245373
188      -0.000007263707
189      -0.000062846696
190      -0.000054990071