[Molden Format]
[Title]
 Molden file created by orca_2mkl for BaseName=/home/smirnovaanastasia2304_1705/_scratch/HERDB_3/Pr_OH_cc

[Atoms] AU
Pr   1  59         -0.4476421061         0.2975506079        -0.0815568005 
O    2   8         -1.9867597914         4.0282498312        -0.1408186120 
O    3   8         -2.0131309196        -2.5636591651        -2.4336989194 
O    4   8          3.1675740635        -0.3772762637         1.5481335688 
H    5   1          4.8430808429        -0.6099469042         2.1997583829 
H    6   1         -2.7483780049         5.6701213751        -0.2351253948 
H    7   1         -2.5748009903        -3.8697755079        -3.5601117555 
[GTO]
  1 0
s   6 1.0 
   961538.7552820001      1791.2119698187
   427350.5579030000      -464.6976799751
   189933.5812900000      1059.7453352467
    84414.9250180000       265.3867821965
    37517.7444520000       670.9029254951
    16674.5530900000       532.5812088880
s   1 1.0 
     7410.9124840000       569.2641778037
s   1 1.0 
     3293.7388820000       309.8681698966
s   1 1.0 
     1463.8839480000       168.6708675443
s   1 1.0 
      650.6150880000        91.8127911014
s   1 1.0 
      289.1622610000        49.9765533033
s   1 1.0 
      128.5165610000        27.2037900206
s   1 1.0 
       57.1184710000        14.8078675854
s   1 1.0 
       25.3859870000         8.0603821431
s   1 1.0 
       11.2826610000         4.3875163396
s   1 1.0 
        5.0145160000         2.3882613934
s   1 1.0 
        2.2286740000         1.3000049386
s   1 1.0 
        0.9905220000         0.7076331774
s   1 1.0 
        0.4402320000         0.3851867133
s   1 1.0 
        0.1956590000         0.2096693575
s   1 1.0 
        0.0869590000         0.1141289955
s   1 1.0 
        0.0386490000         0.0621246262
s   1 1.0 
        0.0171770000         0.0338158711
p   5 1.0 
    12926.8771060000      2243.4411625356
     5170.7508420000       970.3267113047
     2068.3003370000      1541.0095733413
      827.3201350000      1562.6929899323
      330.9280540000      1504.3140347474
p   1 1.0 
      132.3712220000       640.0030748661
p   1 1.0 
       52.9484890000       203.5902856660
p   1 1.0 
       21.1793950000        64.7637556472
p   1 1.0 
        8.4717580000        20.6018876605
p   1 1.0 
        3.3887030000         6.5536308020
p   1 1.0 
        1.3554810000         2.0847639131
p   1 1.0 
        0.5421930000         0.6631816039
p   1 1.0 
        0.2168770000         0.2109633238
p   1 1.0 
        0.0867510000         0.0671093759
p   1 1.0 
        0.0347000000         0.0213477413
p   1 1.0 
        0.0138800000         0.0067908935
d   4 1.0 
      877.6091640000      3337.5212855414
      319.1306050000      3244.8563107122
      116.0474930000      3005.5140400133
       42.1990880000      1583.5704970499
d   1 1.0 
       15.3451230000       339.1706298333
d   1 1.0 
        5.5800450000        57.7545309127
d   1 1.0 
        2.0291070000         9.8345330570
d   1 1.0 
        0.7378570000         1.6746399082
d   1 1.0 
        0.2683120000         0.2851610810
d   1 1.0 
        0.0975680000         0.0485576922
d   1 1.0 
        0.0354790000         0.0082683715
d   1 1.0 
        0.0129020000         0.0014080559
f   4 1.0 
       20.9298010000       586.8186602000
        6.9766000000       151.0188164213
        2.3255330000        19.5194371871
        0.7751780000         1.2419682566
f   1 1.0 
        0.2583930000         0.2714136926
f   1 1.0 
        0.0861310000         0.0229144232

  2 0
s   6 1.0 
    27032.3826310000         1.4645050749
     4052.3871392000         1.8244031008
      922.3272271000         2.8547160967
      261.2407098900         4.3654874290
       85.3546413500         5.8940772662
       31.0350352400         6.2963020147
s   1 1.0 
       12.2608607300         4.6698272139
s   1 1.0 
        4.9987076000         2.3826123703
s   1 1.0 
        1.1703108200         0.8019291632
s   1 1.0 
        0.4647474100        -0.4011648063
s   1 1.0 
        0.1850453600         0.2010799377
p   4 1.0 
       63.2749548000         3.0898340730
       14.6270493800         3.3923831935
        4.4501223500         2.9482801524
        1.5275799600         1.7113350234
p   1 1.0 
        0.5293511800         0.6436057935
p   1 1.0 
        0.1747842100         0.1610897223
d   1 1.0 
        2.3140000000        12.3767310624
d   1 1.0 
        0.6450000000         1.3234257612
f   1 1.0 
        1.4280000000        12.7097950062

  3 0
s   6 1.0 
    27032.3826310000         1.4645050749
     4052.3871392000         1.8244031008
      922.3272271000         2.8547160967
      261.2407098900         4.3654874290
       85.3546413500         5.8940772662
       31.0350352400         6.2963020147
s   1 1.0 
       12.2608607300         4.6698272139
s   1 1.0 
        4.9987076000         2.3826123703
s   1 1.0 
        1.1703108200         0.8019291632
s   1 1.0 
        0.4647474100        -0.4011648063
s   1 1.0 
        0.1850453600         0.2010799377
p   4 1.0 
       63.2749548000         3.0898340730
       14.6270493800         3.3923831935
        4.4501223500         2.9482801524
        1.5275799600         1.7113350234
p   1 1.0 
        0.5293511800         0.6436057935
p   1 1.0 
        0.1747842100         0.1610897223
d   1 1.0 
        2.3140000000        12.3767310624
d   1 1.0 
        0.6450000000         1.3234257612
f   1 1.0 
        1.4280000000        12.7097950062

  4 0
s   6 1.0 
    27032.3826310000         1.4645050749
     4052.3871392000         1.8244031008
      922.3272271000         2.8547160967
      261.2407098900         4.3654874290
       85.3546413500         5.8940772662
       31.0350352400         6.2963020147
s   1 1.0 
       12.2608607300         4.6698272139
s   1 1.0 
        4.9987076000         2.3826123703
s   1 1.0 
        1.1703108200         0.8019291632
s   1 1.0 
        0.4647474100        -0.4011648063
s   1 1.0 
        0.1850453600         0.2010799377
p   4 1.0 
       63.2749548000         3.0898340730
       14.6270493800         3.3923831935
        4.4501223500         2.9482801524
        1.5275799600         1.7113350234
p   1 1.0 
        0.5293511800         0.6436057935
p   1 1.0 
        0.1747842100         0.1610897223
d   1 1.0 
        2.3140000000        12.3767310624
d   1 1.0 
        0.6450000000         1.3234257612
f   1 1.0 
        1.4280000000        12.7097950062

  5 0
s   3 1.0 
       34.0613410000         0.2556300129
        5.1235746000         0.4613599287
        1.1646626000         0.6811215012
s   1 1.0 
        0.3272304100         0.3083545312
s   1 1.0 
        0.1030724100         0.1296483265
p   1 1.0 
        0.8000000000         1.0784563492

  6 0
s   3 1.0 
       34.0613410000         0.2556300129
        5.1235746000         0.4613599287
        1.1646626000         0.6811215012
s   1 1.0 
        0.3272304100         0.3083545312
s   1 1.0 
        0.1030724100         0.1296483265
p   1 1.0 
        0.8000000000         1.0784563492

  7 0
s   3 1.0 
       34.0613410000         0.2556300129
        5.1235746000         0.4613599287
        1.1646626000         0.6811215012
s   1 1.0 
        0.3272304100         0.3083545312
s   1 1.0 
        0.1030724100         0.1296483265
p   1 1.0 
        0.8000000000         1.0784563492

[5D]
[7F]
[9G]
[MO]
 Sym=     1a
 Ene= -1.54901834485026E+03
 Spin= Alpha
 Occup= 1.000000
  1       0.079152452920
  2       0.092431795450
  3       0.170065306847
  4       0.298778590580
  5       0.347531798173
  6       0.177932820561
  7       0.011288547156
  8       0.003101952221
  9      -0.002254487602
 10       0.001483175231
 11      -0.001004940144
 12       0.000679759808
 13      -0.000457707146
 14       0.000313899288
 15      -0.000202863359
 16       0.000089455930
 17      -0.000031723971
 18       0.000008630450
 19      -0.000000113745
 20      -0.000000026525
 21       0.000000168938
 22       0.000000105908
 23       0.000000031253
 24      -0.000000159503
 25      -0.000000092836
 26      -0.000000029299
 27       0.000000139685
 28       0.000000116095
 29       0.000000040919
 30      -0.000000175248
 31      -0.000000172790
 32      -0.000000064435
 33       0.000000261230
 34       0.000000282502
 35       0.000000108507
 36      -0.000000427764
 37      -0.000000504555
 38      -0.000000193908
 39       0.000000764221
 40       0.000000936931
 41       0.000000344991
 42      -0.000001413914
 43      -0.000001445023
 44      -0.000000481374
 45       0.000002155876
 46       0.000000404049
 47       0.000000344403
 48      -0.000000698622
 49       0.000000123628
 50       0.000000022269
 51      -0.000000174643
 52      -0.000000058443
 53      -0.000000017379
 54       0.000000083025
 55      -0.000000144491
 56       0.000000190966
 57       0.000000118166
 58      -0.000000047483
 59      -0.000000086592
 60       0.000000278659
 61      -0.000000382662
 62      -0.000000222360
 63       0.000000090640
 64       0.000000155306
 65      -0.000000550405
 66       0.000000763767
 67       0.000000435052
 68      -0.000000178771
 69      -0.000000299974
 70       0.000001085274
 71      -0.000001514344
 72      -0.000000855570
 73       0.000000351475
 74       0.000000584823
 75      -0.000002283970
 76       0.000003191018
 77       0.000001800678
 78      -0.000000738770
 79      -0.000001227678
 80       0.000004495274
 81      -0.000006292870
 82      -0.000003557718
 83       0.000001439815
 84       0.000002414104
 85      -0.000001591749
 86       0.000002056891
 87       0.000001307561
 88      -0.000000428755
 89      -0.000001086108
 90      -0.000000583095
 91       0.000000883490
 92       0.000000442934
 93      -0.000000210983
 94      -0.000000227551
 95       0.000000243401
 96      -0.000000357250
 97      -0.000000186806
 98       0.000000083626
 99       0.000000109625
100      -0.000000014065
101      -0.000000006616
102      -0.000000248134
103       0.000000295148
104      -0.000000254737
105      -0.000000484105
106       0.000000183802
107       0.000000130508
108       0.000000078746
109       0.000002396047
110      -0.000002877737
111       0.000002439450
112       0.000004676002
113      -0.000001737507
114      -0.000000078550
115      -0.000000010535
116      -0.000001996337
117       0.000002528917
118      -0.000001759963
119      -0.000003969601
120       0.000001029089
121       0.000000068329
122      -0.000000321722
123       0.000000620061
124      -0.000001757297
125      -0.000001764364
126      -0.000006782422
127      -0.000000256557
128       0.000000674843
129      -0.000000009064
130       0.000002220543
131      -0.000005373698
132       0.000000141285
133       0.000003987697
134      -0.000008130997
135       0.000000439018
136       0.000000054392
137      -0.000000008847
138      -0.000000018223
139       0.000000081512
140       0.000000042286
141      -0.000000297667
142      -0.000000016146
143       0.000000114342
144      -0.000000477611
145      -0.000000230298
146      -0.000000033167
147      -0.000000077722
148       0.000000160306
149      -0.000000068179
150       0.000000003894
151       0.000000259293
152      -0.000000060901
153       0.000000060720
154      -0.000000287058
155       0.000000557026
156      -0.000001615595
157      -0.000001577790
158      -0.000006409633
159      -0.000000277774
160      -0.000000497103
161      -0.000000412388
162       0.000002154519
163       0.000004167512
164       0.000003494333
165       0.000002927383
166       0.000006748844
167       0.000005608157
168       0.000000028312
169      -0.000000048825
170      -0.000000034500
171       0.000000006232
172      -0.000000046717
173      -0.000000154433
174       0.000000317907
175       0.000000227479
176      -0.000000029624
177       0.000000388437
178      -0.000000059973
179       0.000000028910
180       0.000000146616
181      -0.000000178712
182       0.000000136772
183       0.000000129486
184       0.000000039725
185       0.000000062075
186      -0.000000293212
187       0.000000568143
188      -0.000001638236
189      -0.000001604563
190      -0.000006559366
191       0.000000633833
192      -0.000000142437
193       0.000000277352
194      -0.000005323554
195       0.000001004399
196      -0.000002266149
197      -0.000008500166
198       0.000001001141
199      -0.000003540796
200       0.000000014643
201      -0.000000062884
202       0.000000014634
203      -0.000000020857
204       0.000000044610
205      -0.000000038133
206       0.000000411659
207      -0.000000127421
208       0.000000180030
209      -0.000000269817
210       0.000000097515
211       0.000000065345
212       0.000000015756
213      -0.000000159205
214       0.000000062571
215       0.000000219567
216      -0.000000069331
217      -0.000000324658
218       0.000009444989
219       0.000001250883
220      -0.000002234921
221       0.000000324344
222      -0.000000845737
223      -0.000000359880
224       0.000009321750
225       0.000001243361
226       0.000000963650
227      -0.000002155336
228       0.000000126155
229      -0.000000318893
230       0.000009385746
231       0.000001225333
232       0.000000738822
233       0.000001712712
234       0.000001502882
 Sym=     1a
 Ene= -2.53631687442791E+02
 Spin= Alpha
 Occup= 1.000000
  1      -0.028911524165
  2      -0.037022574313
  3      -0.069305961833
  4      -0.143603656980
  5      -0.207159011621
  6      -0.099439885124
  7       0.447225149732
  8       0.618118200554
  9       0.112970587849
 10       0.003591920941
 11      -0.002988629846
 12       0.002157681306
 13      -0.001627630979
 14       0.001169937322
 15      -0.000762519118
 16       0.000335103200
 17      -0.000119501950
 18       0.000032600935
 19      -0.000000019559
 20       0.000000514816
 21      -0.000000220347
 22      -0.000000105354
 23       0.000000693922
 24      -0.000000181566
 25      -0.000000359253
 26       0.000000514816
 27       0.000000241806
 28      -0.000000299859
 29       0.000000094928
 30       0.000000359852
 31      -0.000000355193
 32      -0.000000157277
 33       0.000000543876
 34       0.000000942467
 35       0.000000378854
 36      -0.000001433870
 37      -0.000001824384
 38      -0.000000708266
 39       0.000002765207
 40       0.000003537913
 41       0.000001296813
 42      -0.000005337132
 43      -0.000005585433
 44      -0.000001832432
 45       0.000008324517
 46       0.000001462113
 47       0.000001294790
 48      -0.000002546855
 49       0.000000495785
 50       0.000000086672
 51      -0.000000701054
 52      -0.000000230195
 53      -0.000000067471
 54       0.000000327375
 55      -0.000016870134
 56       0.000022060257
 57       0.000013985454
 58      -0.000005533918
 59      -0.000010336904
 60       0.000000931540
 61      -0.000001248850
 62      -0.000000750260
 63       0.000000304746
 64       0.000000541559
 65      -0.000001201961
 66       0.000001731368
 67       0.000000943927
 68      -0.000000376930
 69      -0.000000605952
 70       0.000003918874
 71      -0.000005468041
 72      -0.000003094361
 73       0.000001266318
 74       0.000002111655
 75      -0.000008802900
 76       0.000012307318
 77       0.000006943966
 78      -0.000002845111
 79      -0.000004724942
 80       0.000017483287
 81      -0.000024491319
 82      -0.000013844561
 83       0.000005595764
 84       0.000009375587
 85      -0.000005824459
 86       0.000007496663
 87       0.000004793310
 88      -0.000001554356
 89      -0.000004014739
 90      -0.000002277360
 91       0.000003448503
 92       0.000001732876
 93      -0.000000821309
 94      -0.000000893040
 95       0.000000945837
 96      -0.000001387960
 97      -0.000000726634
 98       0.000000324409
 99       0.000000426770
100      -0.000000042556
101      -0.000000137796
102      -0.000001134684
103       0.000001348778
104      -0.000001054870
105      -0.000002116581
106       0.000000807931
107       0.000000511558
108       0.000000346006
109       0.000009532643
110      -0.000011458335
111       0.000009669936
112       0.000018579132
113      -0.000006890374
114      -0.000000295871
115      -0.000000062169
116      -0.000007625175
117       0.000009658921
118      -0.000006703392
119      -0.000015142845
120       0.000003927747
121       0.000000238408
122      -0.000001182249
123       0.000002419867
124      -0.000007022787
125      -0.000006910112
126      -0.000024841872
127      -0.000001021230
128       0.000002680885
129      -0.000000035780
130       0.000008448814
131      -0.000020459578
132       0.000000524047
133       0.000015416488
134      -0.000031530529
135       0.000001695576
136       0.000000273160
137      -0.000000026229
138      -0.000000060741
139       0.000000395419
140       0.000000247602
141      -0.000001377176
142      -0.000000078936
143       0.000000406586
144      -0.000002124697
145      -0.000001195258
146      -0.000000125538
147      -0.000000316187
148       0.000000659297
149      -0.000000265417
150       0.000000022768
151       0.000001053288
152      -0.000000264904
153       0.000000214585
154      -0.000001062540
155       0.000002191978
156      -0.000006493915
157      -0.000006200305
158      -0.000023403377
159      -0.000001106583
160      -0.000001980429
161      -0.000001641571
162       0.000008228395
163       0.000015884502
164       0.000013302738
165       0.000011380623
166       0.000026153063
167       0.000021745219
168       0.000000098955
169      -0.000000232409
170      -0.000000232063
171       0.000000068403
172      -0.000000247913
173      -0.000000560261
174       0.000001383197
175       0.000001236863
176      -0.000000279346
177       0.000001726309
178      -0.000000260592
179       0.000000121206
180       0.000000584813
181      -0.000000715490
182       0.000000584517
183       0.000000541371
184       0.000000147101
185       0.000000218821
186      -0.000001083701
187       0.000002232103
188      -0.000006578643
189      -0.000006303128
190      -0.000023976656
191       0.000002523255
192      -0.000000564818
193       0.000001105932
194      -0.000020275351
195       0.000003842189
196      -0.000008648219
197      -0.000032949898
198       0.000003910321
199      -0.000013725384
200       0.000000087741
201      -0.000000320156
202       0.000000077248
203      -0.000000179520
204       0.000000205390
205      -0.000000268375
206       0.000001865934
207      -0.000000558197
208       0.000001047382
209      -0.000001157291
210       0.000000409747
211       0.000000251407
212       0.000000062112
213      -0.000000662243
214       0.000000269012
215       0.000000886412
216      -0.000000297628
217      -0.000001373677
218       0.000035832820
219       0.000004890448
220      -0.000008358390
221       0.000001218097
222      -0.000003163654
223      -0.000001509131
224       0.000035343933
225       0.000004864330
226       0.000003595442
227      -0.000008054755
228       0.000000468173
229      -0.000001351286
230       0.000035611959
231       0.000004791876
232       0.000002767754
233       0.000006405245
234       0.000005620981
 Sym=     1a
 Ene= -2.27114871233464E+02
 Spin= Alpha
 Occup= 1.000000
  1      -0.000000053224
  2      -0.000000070079
  3      -0.000000122879
  4      -0.000000285989
  5      -0.000000344275
  6      -0.000000290304
  7       0.000001201990
  8       0.000000943270
  9       0.000000255407
 10      -0.000001291082
 11       0.000002310374
 12      -0.000003582981
 13       0.000005776834
 14      -0.000008979161
 15       0.000002787943
 16       0.000022423592
 17      -0.000005395815
 18       0.000001722329
 19       0.160154411351
 20      -0.308839933855
 21      -0.019023301519
 22       0.220304841092
 23      -0.424833243938
 24      -0.026168105795
 25       0.142179643389
 26      -0.274177608127
 27      -0.016888211107
 28       0.008331514545
 29      -0.016066025669
 30      -0.000989953987
 31       0.002495984775
 32      -0.004813923499
 33      -0.000295854675
 34      -0.001743604240
 35       0.003363624644
 36       0.000205953190
 37       0.001072991404
 38      -0.002071526375
 39      -0.000125293056
 40      -0.000717789110
 41       0.001388778408
 42       0.000081200539
 43       0.000516651412
 44      -0.001002500459
 45      -0.000056312328
 46      -0.000108830977
 47       0.000194585102
 48       0.000021479415
 49       0.000057163012
 50      -0.000104162231
 51      -0.000009664568
 52      -0.000015500512
 53       0.000027980048
 54       0.000002572967
 55       0.000000131455
 56       0.000000054860
 57       0.000000130013
 58       0.000000241922
 59       0.000000189882
 60       0.000001425347
 61       0.000002037875
 62       0.000001235805
 63       0.000003186565
 64       0.000002737977
 65      -0.000004349974
 66      -0.000006059712
 67      -0.000004066166
 68      -0.000009896795
 69      -0.000008265327
 70       0.000010535249
 71       0.000014728818
 72       0.000009567552
 73       0.000023703744
 74       0.000020134978
 75      -0.000023863491
 76      -0.000033433060
 77      -0.000021561690
 78      -0.000053598130
 79      -0.000045709764
 80       0.000050874112
 81       0.000072081298
 82       0.000046460267
 83       0.000114431755
 84       0.000098027954
 85       0.000024354467
 86       0.000046727396
 87       0.000012667856
 88       0.000066764033
 89       0.000046076568
 90      -0.000007959921
 91      -0.000014214557
 92      -0.000003880148
 93      -0.000021082222
 94      -0.000014409679
 95       0.000003907550
 96       0.000006226232
 97       0.000002804117
 98       0.000009441021
 99       0.000007338716
100      -0.000000048821
101       0.000001805516
102      -0.000003065786
103      -0.000003477506
104       0.000002563884
105      -0.000001868729
106       0.000000432154
107      -0.000005020469
108      -0.000026821458
109       0.000032591070
110       0.000039091913
111      -0.000033844892
112       0.000018249094
113      -0.000010094338
114      -0.000000552511
115       0.000003885275
116      -0.000003505583
117      -0.000004122120
118       0.000002605379
119      -0.000005102803
120      -0.000000605215
121      -0.000000546154
122       0.000002598054
123      -0.000004254611
124       0.000013537894
125       0.000097754653
126       0.000106556025
127      -0.000003926165
128       0.000011064047
129      -0.000000091323
130       0.000042175594
131      -0.000102568937
132       0.000003013130
133       0.000148114878
134      -0.000323170300
135       0.000013448399
136       0.000000526695
137       0.000000161547
138      -0.000000279058
139       0.000001299734
140      -0.000000097907
141      -0.000001938528
142      -0.000001192169
143       0.000002456649
144      -0.000006131073
145       0.000001735677
146      -0.000000859261
147      -0.000002606597
148       0.000005918747
149      -0.000000331613
150      -0.000001296272
151       0.000007683197
152      -0.000002289403
153       0.000000341777
154      -0.000001649928
155       0.000002809774
156      -0.000008477419
157      -0.000050388553
158      -0.000051122496
159       0.000003238016
160       0.000003179289
161       0.000003362426
162      -0.000023530501
163      -0.000036531015
164      -0.000033537289
165      -0.000050703635
166      -0.000137122904
167      -0.000106241443
168       0.000000238168
169       0.000001556401
170      -0.000000693375
171       0.000001633607
172       0.000001028015
173      -0.000000494302
174      -0.000007084134
175       0.000003480299
176      -0.000007913878
177      -0.000005316377
178       0.000001816603
179      -0.000001487897
180      -0.000002237203
181       0.000001555026
182      -0.000003116329
183      -0.000001573234
184      -0.000000183227
185       0.000000418002
186      -0.000002026563
187       0.000003491750
188      -0.000010455152
189      -0.000059797368
190      -0.000073517993
191      -0.000005484655
192       0.000000108545
193      -0.000003019234
194       0.000055289564
195      -0.000005720694
196       0.000025410419
197       0.000181772999
198      -0.000040878510
199       0.000070764947
200       0.000000675757
201       0.000000971167
202       0.000000304120
203       0.000000166833
204       0.000001388216
205      -0.000003418364
206      -0.000004807791
207      -0.000001173366
208      -0.000000213856
209      -0.000005473515
210      -0.000002667268
211      -0.000000809737
212       0.000000001592
213       0.000003498924
214      -0.000000175123
215      -0.000003364947
216       0.000000586466
217       0.000003069804
218      -0.000135786648
219      -0.000039757530
220       0.000031213951
221      -0.000000344501
222       0.000013136987
223      -0.000006218684
224       0.000246858060
225       0.000074051544
226       0.000025192407
227      -0.000055055045
228       0.000003734760
229       0.000002331823
230      -0.000124750427
231      -0.000039278576
232      -0.000012304015
233      -0.000019729667
234      -0.000020446834
 Sym=     1a
 Ene= -2.27114315641259E+02
 Spin= Alpha
 Occup= 1.000000
  1       0.000000004571
  2       0.000000006001
  3       0.000000010699
  4       0.000000024377
  5       0.000000030377
  6       0.000000023068
  7      -0.000000103047
  8      -0.000000092882
  9       0.000000013174
 10       0.000000063052
 11      -0.000000124380
 12       0.000000184340
 13      -0.000000310546
 14       0.000000540053
 15      -0.000000798401
 16       0.000000563250
 17      -0.000000376698
 18       0.000000030396
 19       0.256539986868
 20       0.120553812800
 21       0.202602837843
 22       0.352890931679
 23       0.165831266013
 24       0.278696154966
 25       0.227745874574
 26       0.107022808781
 27       0.179862631725
 28       0.013344544605
 29       0.006270961719
 30       0.010538944390
 31       0.003998405568
 32       0.001878814862
 33       0.003157613201
 34      -0.002792518098
 35      -0.001312037715
 36      -0.002205148356
 37       0.001718007424
 38       0.000806925937
 39       0.001356346452
 40      -0.001148570629
 41      -0.000538945518
 42      -0.000906219008
 43       0.000826299085
 44       0.000386578466
 45       0.000651216150
 46      -0.000170186350
 47      -0.000082576288
 48      -0.000136866600
 49       0.000088896375
 50       0.000043034828
 51       0.000071202616
 52      -0.000024185505
 53      -0.000011879565
 54      -0.000019435901
 55      -0.000000123839
 56      -0.000000053577
 57       0.000000017655
 58       0.000000024290
 59       0.000000114144
 60      -0.000000976211
 61       0.000000720503
 62      -0.000002809716
 63       0.000003209926
 64      -0.000002486486
 65       0.000003228989
 66      -0.000002204727
 67       0.000008826270
 68      -0.000010110636
 69       0.000007636423
 70      -0.000007523764
 71       0.000005402044
 72      -0.000021170167
 73       0.000024262050
 74      -0.000018432426
 75       0.000016890664
 76      -0.000012330183
 77       0.000048007775
 78      -0.000054999064
 79       0.000041870286
 80      -0.000035948951
 81       0.000026668859
 82      -0.000102882959
 83       0.000118178392
 84      -0.000089640445
 85      -0.000009445432
 86       0.000011954692
 87      -0.000050089715
 88       0.000047452835
 89      -0.000056184831
 90       0.000003342729
 91      -0.000003825681
 92       0.000016100280
 93      -0.000015522359
 94       0.000018031556
 95      -0.000002148421
 96       0.000001979338
 97      -0.000007786256
 98       0.000008314919
 99      -0.000007715409
100       0.000004590322
101      -0.000000949247
102      -0.000000825608
103      -0.000001548381
104      -0.000002105660
105      -0.000000123391
106      -0.000001556451
107      -0.000053785247
108       0.000006521331
109       0.000018627084
110       0.000013631822
111       0.000026331384
112      -0.000005044825
113       0.000022549844
114       0.000007342281
115       0.000000594101
116      -0.000002623601
117       0.000000302231
118      -0.000001402083
119       0.000000382388
120      -0.000005535162
121       0.000000020424
122      -0.000000096951
123       0.000000156686
124      -0.000000315148
125      -0.000002973614
126      -0.000009518378
127       0.000001251862
128       0.000000172691
129       0.000000885922
130      -0.000005199256
131       0.000000857078
132      -0.000003274413
133       0.000009464771
134       0.000012368347
135       0.000009563295
136       0.000000095736
137       0.000000567601
138      -0.000001338325
139       0.000001377508
140      -0.000001499063
141      -0.000000125629
142      -0.000002495510
143       0.000005645790
144      -0.000005703107
145       0.000006503265
146       0.000000750655
147       0.000000159193
148       0.000000256871
149       0.000000393638
150       0.000000391076
151      -0.000000750861
152      -0.000001044817
153      -0.000000507849
154       0.000002421565
155      -0.000003979194
156       0.000011836630
157       0.000083810084
158       0.000095574455
159      -0.000004135624
160      -0.000007420658
161      -0.000005794590
162       0.000035891023
163       0.000071351473
164       0.000058739075
165       0.000107512144
166       0.000221629376
167       0.000190246714
168       0.000000646877
169      -0.000000022525
170      -0.000000058342
171       0.000000349934
172      -0.000000571386
173      -0.000003960132
174       0.000001366881
175      -0.000000215180
176      -0.000000796318
177       0.000004073493
178      -0.000003189676
179       0.000001614531
180       0.000003441541
181      -0.000004888128
182       0.000004438217
183       0.000002792757
184       0.000001658720
185       0.000000476812
186      -0.000002271491
187       0.000003724476
188      -0.000011374924
189      -0.000081130597
190      -0.000086537713