[Molden Format]
[Title]
 Molden file created by orca_2mkl for BaseName=/home/smirnovaanastasia2304_2125/_scratch/O2_cc/Tb_O2_cc

[Atoms] AU
Tb   1  65         -0.3141499622        -0.4116919561        -1.5962743420 
O    2   8         -1.4037263668         2.5848316567        -0.5950331856 
O    3   8          2.8928154425        -0.5115299672        -0.6866811236 
[GTO]
  1 0
s   6 1.0 
  1169335.0320500000      2257.9371502123
   519704.4586890000      -602.2483363036
   230979.7594170000      1317.3870848776
   102657.6708520000       297.4045038601
    45625.6314900000       796.7055554523
    20278.0584400000       597.4180684830
s   1 1.0 
     9012.4704180000       659.2391358096
s   1 1.0 
     4005.5424080000       358.8443336015
s   1 1.0 
     1780.2410700000       195.3301142957
s   1 1.0 
      791.2182530000       106.3242469495
s   1 1.0 
      351.6525570000        57.8755894164
s   1 1.0 
      156.2900250000        31.5034805347
s   1 1.0 
       69.4622330000        17.1483227009
s   1 1.0 
       30.8721040000         9.3343646701
s   1 1.0 
       13.7209350000         5.0809845280
s   1 1.0 
        6.0981930000         2.7657375498
s   1 1.0 
        2.7103080000         1.5054768355
s   1 1.0 
        1.2045810000         0.8194776225
s   1 1.0 
        0.5353700000         0.4460675345
s   1 1.0 
        0.2379420000         0.2428082411
s   1 1.0 
        0.1057520000         0.1321680658
s   1 1.0 
        0.0470010000         0.0719433101
s   1 1.0 
        0.0208890000         0.0391605091
p   5 1.0 
    15962.9363470000      3334.0319210996
     6385.1745390000      1330.9849615702
     2554.0698150000      2106.5012424578
     1021.6279260000      2051.4716840897
      408.6511700000      1945.7955945689
p   1 1.0 
      163.4604680000       833.1170267169
p   1 1.0 
       65.3841870000       265.0214329808
p   1 1.0 
       26.1536750000        84.3055160641
p   1 1.0 
       10.4614700000        26.8182836797
p   1 1.0 
        4.1845880000         8.5311184025
p   1 1.0 
        1.6738350000         2.7138190943
p   1 1.0 
        0.6695340000         0.8632883556
p   1 1.0 
        0.2678140000         0.2746196966
p   1 1.0 
        0.1071250000         0.0873581909
p   1 1.0 
        0.0428500000         0.0277893649
p   1 1.0 
        0.0171400000         0.0088400274
d   4 1.0 
     1138.5148960000      5200.0410121432
      414.0054170000      4972.1062622461
      150.5474240000      4645.8865053976
       54.7445180000      2512.1027240162
d   1 1.0 
       19.9070970000       534.8524205797
d   1 1.0 
        7.2389450000        91.0755532793
d   1 1.0 
        2.6323430000        15.5084866418
d   1 1.0 
        0.9572160000         2.6408120610
d   1 1.0 
        0.3480780000         0.4496805357
d   1 1.0 
        0.1265740000         0.0765725248
d   1 1.0 
        0.0460270000         0.0130389390
d   1 1.0 
        0.0167370000         0.0022202706
f   4 1.0 
       32.1811360000      1485.3691980056
       10.7270450000       408.9486275325
        3.5756820000        52.1705547224
        1.1918940000         3.1163730569
f   1 1.0 
        0.3972980000         0.7145159560
f   1 1.0 
        0.1324330000         0.0603241996

  2 0
s   6 1.0 
    27032.3826310000         1.4645050749
     4052.3871392000         1.8244031008
      922.3272271000         2.8547160967
      261.2407098900         4.3654874290
       85.3546413500         5.8940772662
       31.0350352400         6.2963020147
s   1 1.0 
       12.2608607300         4.6698272139
s   1 1.0 
        4.9987076000         2.3826123703
s   1 1.0 
        1.1703108200         0.8019291632
s   1 1.0 
        0.4647474100        -0.4011648063
s   1 1.0 
        0.1850453600         0.2010799377
p   4 1.0 
       63.2749548000         3.0898340730
       14.6270493800         3.3923831935
        4.4501223500         2.9482801524
        1.5275799600         1.7113350234
p   1 1.0 
        0.5293511800         0.6436057935
p   1 1.0 
        0.1747842100         0.1610897223
d   1 1.0 
        2.3140000000        12.3767310624
d   1 1.0 
        0.6450000000         1.3234257612
f   1 1.0 
        1.4280000000        12.7097950062

  3 0
s   6 1.0 
    27032.3826310000         1.4645050749
     4052.3871392000         1.8244031008
      922.3272271000         2.8547160967
      261.2407098900         4.3654874290
       85.3546413500         5.8940772662
       31.0350352400         6.2963020147
s   1 1.0 
       12.2608607300         4.6698272139
s   1 1.0 
        4.9987076000         2.3826123703
s   1 1.0 
        1.1703108200         0.8019291632
s   1 1.0 
        0.4647474100        -0.4011648063
s   1 1.0 
        0.1850453600         0.2010799377
p   4 1.0 
       63.2749548000         3.0898340730
       14.6270493800         3.3923831935
        4.4501223500         2.9482801524
        1.5275799600         1.7113350234
p   1 1.0 
        0.5293511800         0.6436057935
p   1 1.0 
        0.1747842100         0.1610897223
d   1 1.0 
        2.3140000000        12.3767310624
d   1 1.0 
        0.6450000000         1.3234257612
f   1 1.0 
        1.4280000000        12.7097950062

[5D]
[7F]
[9G]
[MO]
 Sym=     1a
 Ene= -1.91804261090498E+03
 Spin= Alpha
 Occup= 1.000000
  1      -0.088673446838
  2      -0.099133295375
  3      -0.174811918193
  4      -0.300057401537
  5      -0.339539990111
  6      -0.171172456835
  7      -0.009938950353
  8      -0.003259140444
  9       0.002373415433
 10      -0.001567593210
 11       0.001055402527
 12      -0.000708997394
 13       0.000470762662
 14      -0.000311976859
 15       0.000213155823
 16      -0.000167863240
 17       0.000050030035
 18      -0.000012385100
 19       0.000000375517
 20       0.000000519007
 21       0.000000341221
 22      -0.000000615561
 23      -0.000000835479
 24      -0.000000552577
 25       0.000000389317
 26       0.000000528256
 27       0.000000349416
 28      -0.000000436786
 29      -0.000000589322
 30      -0.000000390541
 31       0.000000582278
 32       0.000000782566
 33       0.000000519277
 34      -0.000000851718
 35      -0.000001143134
 36      -0.000000758877
 37       0.000001348429
 38       0.000001816595
 39       0.000001204452
 40      -0.000001821553
 41      -0.000002505576
 42      -0.000001649876
 43       0.000001510867
 44       0.000002248920
 45       0.000001443966
 46      -0.000016086504
 47      -0.000022036583
 48      -0.000014530290
 49       0.000002418967
 50       0.000003309784
 51       0.000002183225
 52      -0.000000456912
 53      -0.000000623734
 54      -0.000000411746
 55       0.000000003595
 56      -0.000000004785
 57      -0.000000006666
 58       0.000000001371
 59      -0.000000004614
 60      -0.000000120619
 61       0.000000038164
 62       0.000000061782
 63       0.000000037167
 64      -0.000000105191
 65       0.000000316217
 66      -0.000000106804
 67      -0.000000170827
 68      -0.000000092949
 69       0.000000261471
 70      -0.000000656595
 71       0.000000219007
 72       0.000000351984
 73       0.000000193584
 74      -0.000000548194
 75       0.000001157747
 76      -0.000000373631
 77      -0.000000613007
 78      -0.000000337418
 79       0.000000987536
 80      -0.000001185935
 81       0.000000298969
 82       0.000000561361
 83       0.000000341086
 84      -0.000001161358
 85       0.000010576237
 86      -0.000003628698
 87      -0.000005881953
 88      -0.000002940139
 89       0.000008565382
 90      -0.000000776401
 91       0.000000363527
 92       0.000000562180
 93       0.000000147185
 94      -0.000000421177
 95       0.000000083303
 96      -0.000000051875
 97      -0.000000077512
 98      -0.000000006811
 99       0.000000017736
100       0.000000123869
101       0.000000046810
102       0.000000052265
103      -0.000000018266
104       0.000000076866
105       0.000000238203
106      -0.000000075866
107      -0.000000406330
108      -0.000000156827
109      -0.000000188837
110       0.000000059165
111      -0.000000309042
112      -0.000000852763
113       0.000000279336
114       0.000003417992
115       0.000001259225
116       0.000001425715
117      -0.000000458052
118       0.000002029269
119       0.000006430342
120      -0.000002049322
121      -0.000000104109
122       0.000000455422
123      -0.000000789613
124       0.000003115713
125       0.000012783237
126       0.000040341869
127      -0.000000198777
128       0.000000397095
129       0.000000116508
130      -0.000000558051
131       0.000002002567
132       0.000000719716
133       0.000003488797
134      -0.000012231733
135      -0.000004372195
136       0.000000255876
137       0.000000093894
138      -0.000000302410
139       0.000000362047
140       0.000000338023
141      -0.000000538964
142      -0.000000174065
143       0.000000597565
144      -0.000000680320
145      -0.000000706732
146       0.000000594670
147      -0.000000206547
148       0.000000505100
149       0.000000629705
150       0.000000557826
151       0.000000974475
152      -0.000000494203
153      -0.000000103245
154       0.000000450374
155      -0.000000776171
156       0.000003043820
157       0.000012696811
158       0.000040355609
159       0.000000463761
160      -0.000000066284
161       0.000000108607
162       0.000002012473
163       0.000000100452
164       0.000000642935
165      -0.000012788727
166      -0.000000510443
167      -0.000004029112
168       0.000000271779
169      -0.000000290394
170      -0.000000007810
171      -0.000000503349
172       0.000000058807
173      -0.000000595406
174       0.000000595509
175       0.000000027717
176       0.000001040823
177      -0.000000174208
178       0.000000563294
179       0.000000631509
180      -0.000000041653
181      -0.000000787123
182       0.000000069055
183       0.000001128507
184      -0.000000169024
 Sym=     1a
 Ene= -3.23265387436819E+02
 Spin= Alpha
 Occup= 1.000000
  1      -0.033252410111
  2      -0.040992059112
  3      -0.073259399491
  4      -0.148374766593
  5      -0.204808888469
  6      -0.080810709049
  7       0.472536229733
  8       0.600133277536
  9       0.095601785540
 10       0.004231206065
 11      -0.003736349407
 12       0.002652446610
 13      -0.001904079951
 14       0.001310382723
 15      -0.000904998898
 16       0.000716228736
 17      -0.000213421860
 18       0.000052898405
 19       0.000017510201
 20       0.000023325361
 21       0.000015523687
 22       0.000024359630
 23       0.000032428533
 24       0.000021586785
 25       0.000018122754
 26       0.000024103338
 27       0.000016049937
 28       0.000000169374
 29       0.000000168234
 30       0.000000124777
 31      -0.000000068021
 32      -0.000000074367
 33      -0.000000053120
 34       0.000002736871
 35       0.000003668587
 36       0.000002436459
 37      -0.000005104104
 38      -0.000006877139
 39      -0.000004559526
 40       0.000007416090
 41       0.000010218030
 42       0.000006724694
 43      -0.000007061749
 44      -0.000010437786
 45      -0.000006716505
 46       0.000068930280
 47       0.000094430461
 48       0.000062263813
 49      -0.000010345379
 50      -0.000014156179
 51      -0.000009337597
 52       0.000001954772
 53       0.000002668871
 54       0.000001761716
 55      -0.000002054976
 56       0.000001535671
 57       0.000002238585
 58       0.000000010876
 59       0.000000098645
 60       0.000001581260
 61      -0.000000820090
 62      -0.000001232031
 63      -0.000000271131
 64       0.000000700140
 65      -0.000002043287
 66       0.000000864826
 67       0.000001335980
 68       0.000000480379
 69      -0.000001317673
 70       0.000003140212
 71      -0.000001183599
 72      -0.000001864083
 73      -0.000000832493
 74       0.000002332070
 75      -0.000005293427
 76       0.000001748613
 77       0.000002855666
 78       0.000001515934
 79      -0.000004429831
 80       0.000005817076
 81      -0.000001543739
 82      -0.000002823765
 83      -0.000001664956
 84       0.000005552699
 85      -0.000045502031
 86       0.000015609681
 87       0.000025303375
 88       0.000012650437
 89      -0.000036854940
 90       0.000003347541
 91      -0.000001580548
 92      -0.000002441070
 93      -0.000000625995
 94       0.000001788144
 95      -0.000000367349
 96       0.000000231055
 97       0.000000344766
 98       0.000000028586
 99      -0.000000073383
100      -0.000000698661
101      -0.000000241931
102      -0.000000269188
103       0.000000072840
104      -0.000000329017
105      -0.000001193378
106       0.000000378469
107       0.000002199979
108       0.000000831970
109       0.000000987063
110      -0.000000303584
111       0.000001544704
112       0.000004444823
113      -0.000001446875
114      -0.000014787206
115      -0.000005447802
116      -0.000006167563
117       0.000001981758
118      -0.000008777823
119      -0.000027817790
120       0.000008865323
121       0.000000383661
122      -0.000001781911
123       0.000003287100
124      -0.000013727402
125      -0.000055353046
126      -0.000172609836
127       0.000000829523
128      -0.000001547896
129      -0.000000437892
130       0.000002585200
131      -0.000009250263
132      -0.000003322301
133      -0.000014795109
134       0.000052210683
135       0.000018691301
136      -0.000001088352
137      -0.000000402071
138       0.000001274834
139      -0.000001527159
140      -0.000001448509
141       0.000002133462
142       0.000000668177
143      -0.000002295592
144       0.000002571756
145       0.000002815349
146      -0.000002465172
147       0.000000865697
148      -0.000002103254
149      -0.000002600896
150      -0.000002317300
151      -0.000004056137
152       0.000002027041
153       0.000000379805
154      -0.000001758363
155       0.000003225627
156      -0.000013415757
157      -0.000054986714
158      -0.000172665166
159      -0.000001835069
160       0.000000310705
161      -0.000000408332
162      -0.000009330505
163      -0.000000454898
164      -0.000002976073
165       0.000054558268
166       0.000002270804
167       0.000017229898
168      -0.000001157385
169       0.000001226951
170       0.000000027483
171       0.000002140315
172      -0.000000266560
173       0.000002364085
174      -0.000002296217
175      -0.000000110900
176      -0.000004052308
177       0.000000778660
178      -0.000002336364
179      -0.000002632334
180       0.000000179288
181       0.000003260463
182      -0.000000294634
183      -0.000004683831
184       0.000000728680
 Sym=     1a
 Ene= -2.87836482552249E+02
 Spin= Alpha
 Occup= 1.000000
  1       0.000003204203
  2       0.000003893680
  3       0.000007263848
  4       0.000013669884
  5       0.000021564003
  6       0.000003089127
  7      -0.000037667452
  8      -0.000063478910
  9      -0.000002015722
 10      -0.000035183464
 11       0.000067583767
 12      -0.000098179940
 13       0.000135189045
 14      -0.000138825877
 15       0.000016126416
 16       0.000189335438
 17      -0.000059973132
 18       0.000013506011
 19       0.183647380370
 20       0.254765483606
 21       0.167292366514
 22       0.247513882902
 23       0.343364516944
 24       0.225471134518
 25       0.156846278971
 26       0.217585497115
 27       0.142878052610
 28       0.008015636941
 29       0.011119795247
 30       0.007301824319
 31       0.002882861875
 32       0.003999119250
 33       0.002626061522
 34      -0.001985593724
 35      -0.002754282854
 36      -0.001808657713
 37       0.001198457659
 38       0.001662300996
 39       0.001091610466
 40      -0.000734005055
 41      -0.001018755233
 42      -0.000668860001
 43       0.000436090813
 44       0.000607385743
 45       0.000398323107
 46      -0.000190364805
 47      -0.000270944193
 48      -0.000176445522
 49       0.000092151563
 50       0.000128897602
 51       0.000084413673
 52      -0.000029969232
 53      -0.000041812902
 54      -0.000027405525
 55      -0.000003245253
 56       0.000006282904
 57       0.000008616071
 58      -0.000002574231
 59       0.000008338366
 60       0.000000510226
 61      -0.000001410228
 62      -0.000001913189
 63       0.000000691550
 64      -0.000002208360
 65       0.000002933407
 66      -0.000001318115
 67      -0.000002068567
 68      -0.000000569027
 69       0.000001697609
 70      -0.000007096809
 71       0.000003523527
 72       0.000005458779
 73       0.000001132986
 74      -0.000003388649
 75       0.000013157678
 76      -0.000007290231
 77      -0.000011281007
 78      -0.000001365701
 79       0.000004572261
 80      -0.000013219817
 81       0.000009111764
 82       0.000014414819
 83      -0.000000838729
 84      -0.000000339992
 85      -0.000031243199
 86       0.000007252758
 87       0.000011090125
 88       0.000013405039
 89      -0.000033752417
 90       0.000010080680
 91      -0.000005979000
 92      -0.000008873141
 93      -0.000001182513
 94       0.000002851770
 95      -0.000003023478
 96       0.000001795295
 97       0.000002677824
 98       0.000000334050
 99      -0.000000842200
100       0.000002644190
101       0.000000817268
102       0.000000935886
103      -0.000000133527
104       0.000000872713
105       0.000003961221
106      -0.000001260241
107      -0.000011930485
108      -0.000003059339
109      -0.000003780655
110      -0.000000336159
111      -0.000001823665
112      -0.000014642884
113       0.000004732353
114      -0.000003930613
115      -0.000002752642
116      -0.000002706167
117       0.000002464602
118      -0.000007157896
119      -0.000014650751
120       0.000004537579
121       0.000001351927
122      -0.000006835756
123       0.000013079682
124      -0.000020602512
125       0.000000198633
126      -0.000069766988
127      -0.000000398323
128       0.000006755780
129       0.000002869435
130      -0.000018192741
131       0.000020266161
132       0.000003552662
133       0.000007135510
134       0.000032145696
135       0.000016339255
136       0.000003045296
137       0.000001562779
138      -0.000004432467
139       0.000005983572
140       0.000004062473
141      -0.000002779258
142      -0.000001189004
143       0.000009576589
144      -0.000012875330
145       0.000000122150
146       0.000008638921
147      -0.000002136520
148       0.000006592575
149       0.000009098806
150       0.000007609719
151       0.000013286372
152      -0.000008232441
153       0.000001379041
154      -0.000006983589
155       0.000013416188
156      -0.000022260783
157      -0.000003519297
158      -0.000076261673
159       0.000006873456
160       0.000001685334
161       0.000002789537
162       0.000023137557
163      -0.000010891010
164       0.000002064295
165       0.000030238497
166       0.000016673628
167       0.000016367192
168       0.000003259416
169      -0.000004317084
170       0.000000130418
171      -0.000007315366
172      -0.000000221278
173      -0.000003528727
174       0.000009571525
175       0.000001574110
176       0.000011212629
177       0.000007609794
178       0.000008121021
179       0.000008069757
180      -0.000000037409
181      -0.000010931657
182       0.000000782001
183       0.000016005643
184      -0.000001176946
 Sym=     1a
 Ene= -2.87836255717673E+02
 Spin= Alpha
 Occup= 1.000000
  1       0.000000057442
  2       0.000000070142
  3       0.000000129514
  4       0.000000248753
  5       0.000000379004
  6       0.000000076660
  7      -0.000000740183
  8      -0.000001140175
  9       0.000000053641
 10      -0.000000538388
 11       0.000000978956
 12      -0.000001371121
 13       0.000001428546
 14       0.000000264671
 15      -0.000004250724
 16       0.000008510143
 17      -0.000001162983
 18       0.000000202804
 19       0.290122495502
 20      -0.205973245750
 21      -0.004814132606
 22       0.391016580412
 23      -0.277603272520
 24      -0.006488313340
 25       0.247782876896
 26      -0.175914079802
 27      -0.004111554701
 28       0.012657934625
 29      -0.008986581841
 30      -0.000210059622
 31       0.004562131920
 32      -0.003238808010
 33      -0.000075661778
 34      -0.003150762235
 35       0.002236738226
 36       0.000052213947
 37       0.001917451918
 38      -0.001361117401
 39      -0.000031736317
 40      -0.001198192038
 41       0.000850879788
 42       0.000019979495
 43       0.000727958575
 44      -0.000518039864
 45      -0.000012620559
 46      -0.000265423271
 47       0.000191617502
 48       0.000005810509
 49       0.000130598093
 50      -0.000093212961
 51      -0.000002385774
 52      -0.000043190149
 53       0.000030776008
 54       0.000000766670
 55      -0.000000261204
 56       0.000004620251
 57      -0.000003457826
 58       0.000010333363
 59       0.000003298278
 60       0.000000028530
 61      -0.000000443587
 62       0.000000328255
 63      -0.000000989171
 64      -0.000000313506
 65       0.000000159213
 66      -0.000003440119
 67       0.000002597161
 68      -0.000007702260
 69      -0.000002498016
 70      -0.000000404398
 71       0.000008821021
 72      -0.000006672641
 73       0.000019765535
 74       0.000006403142
 75       0.000000690608
 76      -0.000017280897
 77       0.000013153880
 78      -0.000038769129
 79      -0.000012655024
 80      -0.000000406108
 81       0.000021007506
 82      -0.000016335062
 83       0.000047325440
 84       0.000015859697
 85      -0.000002540340
 86       0.000031535637
 87      -0.000023147949
 88       0.000070395103
 89       0.000021586488
 90       0.000000669810
 91      -0.000012757897
 92       0.000009571875
 93      -0.000028532952
 94      -0.000009174906
 95      -0.000000194220
 96       0.000003826247
 97      -0.000002877063
 98       0.000008561838
 99       0.000002758312
100      -0.000000097952
101       0.000002462265
102      -0.000001626832
103      -0.000003798873
104      -0.000001339503
105       0.000000291921
106       0.000000555465
107       0.000000783123
108      -0.000012511657
109       0.000008505467
110       0.000017780407
111       0.000006513200
112      -0.000000372583
113      -0.000001173653
114      -0.000000368997
115      -0.000001766073
116       0.000000479849
117       0.000013936533
118       0.000004102498
119      -0.000005241298
120      -0.000012817355
121      -0.000001313754
122       0.000006659237
123      -0.000012673910
124       0.000013856047
125      -0.000025957104
126       0.000076492828
127       0.000003323160
128      -0.000006880666
129      -0.000002054825
130       0.000007682298
131      -0.000037170718
132      -0.000014154881
133       0.000026300666
134      -0.000031859706
135      -0.000006268879
136      -0.000004593549
137      -0.000001594345
138       0.000005630164
139      -0.000006673507
140      -0.000005823026
141       0.000007110571
142       0.000002221764
143      -0.000005171357
144       0.000005118313
145       0.000010957045
146      -0.000010671290
147       0.000003192567
148      -0.000008524879
149      -0.000011617477
150      -0.000009580602
151      -0.000016530403
152       0.000009776269
153       0.000001384475
154      -0.000007031785
155       0.000013454709
156      -0.000016304112
157       0.000022331430
158      -0.000085163314
159       0.000008175433
160      -0.000000950199
161       0.000002011120
162       0.000036823703
163       0.000004078870
164       0.000012755311
165       0.000041254608
166      -0.000014603192
167       0.000005810494
168       0.000004945174
169      -0.000005515628
170      -0.000000285752
171      -0.000009227661
172       0.000000681489
173      -0.000007911419
174       0.000005672318
175      -0.000000244344
176       0.000012084418
177      -0.000005576626
178       0.000010342512
179       0.000010731391
180      -0.000000375888
181      -0.000014426985
182       0.000000724222
183       0.000020277204
184      -0.000001576409
 Sym=     1a
 Ene= -2.87835812448360E+02
 Spin= Alpha
 Occup= 1.000000
  1       0.000000000000
  2       0.000000000000
  3       0.000000000000
  4      -0.000000000000
  5       0.000000000000
  6      -0.000000000000
  7       0.000000000000
  8      -0.000000000001
  9       0.000000000000
 10      -0.000000000000
 11       0.000000000001
 12      -0.000000000001
 13       0.000000000001
 14      -0.000000000001
 15       0.000000000000
 16       0.000000000001
 17      -0.000000000000
 18       0.000000000000
 19      -0.093389468594
 20      -0.138882710066
 21       0.314020616426
 22      -0.125866839286
 23      -0.187180931754
 24       0.423225263568
 25      -0.079759486167
 26      -0.118613091595
 27       0.268190015309
 28      -0.004078924422
 29      -0.006065909641
 30       0.013715319090
 31      -0.001461690858
 32      -0.002173731051
 33       0.004914912477
 34       0.001003505242
 35       0.001492347367
 36      -0.003374270562
 37      -0.000599435369
 38      -0.000891441077
 39       0.002015591981
 40       0.000359236645
 41       0.000534233244
 42      -0.001207927558
 43      -0.000211161364
 44      -0.000314025371
 45       0.000710026759
 46       0.000117971105
 47       0.000175438912
 48      -0.000396675981
 49      -0.000053828305
 50      -0.000080049935
 51       0.000180996827
 52       0.000017132423
 53       0.000025478219
 54      -0.000057607502
 55       0.000008578464
 56       0.000004113788
 57       0.000005251282
 58       0.000001629794
 59      -0.000004684035
 60      -0.000002367931
 61      -0.000001127580
 62      -0.000001454872
 63      -0.000000454608
 64       0.000001291016
 65      -0.000000781798
 66      -0.000000358369
 67      -0.000000489698
 68      -0.000000158370
 69       0.000000422872
 70       0.000001666851
 71       0.000000774939
 72       0.000001036763
 73       0.000000331190
 74      -0.000000904227
 75      -0.000004527521
 76      -0.000002120733
 77      -0.000002805421
 78      -0.000000890166
 79       0.000002459910
 80       0.000008278063
 81       0.000003900775
 82       0.000005113761
 83       0.000001613737
 84      -0.000004503302
 85      -0.000006497922
 86      -0.000003091650
 87      -0.000003994104
 88      -0.000001249043
 89       0.000003542096
 90      -0.000003277982
 91      -0.000001536203
 92      -0.000002030645
 93      -0.000000644036
 94       0.000001781191
 95       0.000001011109
 96       0.000000474323
 97       0.000000626044
 98       0.000000198374
 99      -0.000000549532
100       0.000000756727
101      -0.000000403253
102      -0.000000656191
103      -0.000000303705
104       0.000000816565
105      -0.000000421216
106       0.000000112593
107      -0.000005330298
108       0.000003612167
109       0.000005654812
110       0.000002104514
111      -0.000005522032
112       0.000002555402
113      -0.000000656700
114       0.000004737829
115      -0.000003267840
116      -0.000005090036
117      -0.000001874314
118       0.000004890669
119      -0.000002245459
120       0.000000568931
121       0.000000000000
122      -0.000000000000
123       0.000000000000
124      -0.000000000000
125      -0.000000000000
126      -0.000000000001
127      -0.000000721099
128      -0.000001072371
129       0.000002424684
130       0.000003779758
131       0.000005621010
132      -0.000012709378
133      -0.000004951630
134      -0.000007363741
135       0.000016649779
136      -0.000000613044
137       0.000000495039
138      -0.000000905840
139      -0.000000585780
140       0.000000143563
141       0.000006189323
142      -0.000004949120
143       0.000009112571
144       0.000005885027
145      -0.000001461242
146       0.000000391324
147       0.000000232829
148      -0.000000866475
149       0.000000375220
150       0.000000602878
151      -0.000000050999
152       0.000000546018
153       0.000000000000
154      -0.000000000000
155       0.000000000000
156      -0.000000000000
157       0.000000000000
158       0.000000000000
159      -0.000000717702
160      -0.000001067320
161       0.000002413262
162       0.000003809275
163       0.000005664905
164      -0.000012808627
165      -0.000004985234
166      -0.000007413715
167       0.000016762772
168      -0.000000539292
169      -0.000001010901
170       0.000000175735
171       0.000000344999
172       0.000000476738
173       0.000005613185
174       0.000010461127
175      -0.000001788270
176      -0.000003554756
177      -0.000004947368
178       0.000000390396
179      -0.000000727076
180      -0.000000058289
181      -0.000000614842
182       0.000000223823
183      -0.000000291257
184      -0.000000391026
 Sym=     1a
 Ene= -7.43503419765827E+01
 Spin= Alpha
 Occup= 1.000000
  1       0.015539722568
  2       0.019409364618
  3       0.035012831676
  4       0.072108553427
  5       0.105135803122
  6       0.037273962918
  7      -0.360692528198
  8      -0.694423695044
  9       0.422724086580
 10       0.914804053803
 11       0.047315025885
 12       0.035581328967
 13      -0.024193709333
 14       0.016651933201
 15      -0.011724094222
 16       0.009304418066
 17      -0.002781301729
 18       0.000691017702
 19      -0.000072144741
 20      -0.000095940123
 21      -0.000063887473
 22      -0.000110709568
 23      -0.000147271594
 24      -0.000098059123
 25      -0.000010497205
 26      -0.000013796987
 27      -0.000009223889
 28       0.000286021020
 29       0.000380629982
 30       0.000253404622
 31       0.000140158702
 32       0.000185609442
 33       0.000123773051
 34       0.000025334494
 35       0.000034153018
 36       0.000022639401
 37      -0.000055415423
 38      -0.000075007218
 39      -0.000049654137
 40       0.000096934863
 41       0.000133893711
 42       0.000088045866
 43      -0.000092864996
 44      -0.000137329158
 45      -0.000088354894
 46       0.000896035578
 47       0.001227618254
 48       0.000809422142
 49      -0.000134672142
 50      -0.000184315295
 51      -0.000121568986
 52       0.000025502429
 53       0.000034831106
 54       0.000022989245