[Molden Format]
[Title]
 Molden file created by orca_2mkl for BaseName=/home/smirnovaanastasia2304_2125/_scratch/HERBD/Pm_Cl_cc

[Atoms] AU
Pm   1  61          0.2380469114         0.4288714564        -0.6464110597 
Cl   2  17         -1.6545459371        -2.5644793062        -3.7791347939 
Cl   3  17         -1.8584228205         4.5761721443         0.3618617677 
Cl   4  17          4.8415104805        -0.2250852798         0.2263684039 
[GTO]
  1 0
s   6 1.0 
  1028523.6509460000      1938.6121026123
   457121.6226430000      -507.6849850967
   203165.1656190000      1141.5619094338
    90295.6291640000       276.3700689820
    40131.3907400000       711.5996470204
    17836.1736620000       554.3401448036
s   1 1.0 
     7927.1882940000       598.7554407759
s   1 1.0 
     3523.1947970000       325.9211801138
s   1 1.0 
     1565.8643540000       177.4090194577
s   1 1.0 
      695.9397130000        96.5692385535
s   1 1.0 
      309.3065390000        52.5656353870
s   1 1.0 
      137.4695730000        28.6131077292
s   1 1.0 
       61.0975880000        15.5750030871
s   1 1.0 
       27.1544840000         8.4779579498
s   1 1.0 
       12.0686590000         4.6148156268
s   1 1.0 
        5.3638490000         2.5119876491
s   1 1.0 
        2.3839330000         1.3673529323
s   1 1.0 
        1.0595260000         0.7442927799
s   1 1.0 
        0.4709000000         0.4051413865
s   1 1.0 
        0.2092890000         0.2205311257
s   1 1.0 
        0.0930170000         0.1200416175
s   1 1.0 
        0.0413410000         0.0653425119
s   1 1.0 
        0.0183740000         0.0355682810
p   5 1.0 
    13902.5411060000      2568.5145477876
     5561.0164430000      1081.0356736804
     2224.4065770000      1714.7353229019
      889.7626310000      1715.9795287132
      355.9050520000      1644.2651453214
p   1 1.0 
      142.3620210000       700.9431061620
p   1 1.0 
       56.9448080000       222.9758119869
p   1 1.0 
       22.7779230000        70.9304538200
p   1 1.0 
        9.1111690000        22.5635648614
p   1 1.0 
        3.6444680000         7.1776580531
p   1 1.0 
        1.4577870000         2.2832721487
p   1 1.0 
        0.5831150000         0.7263281137
p   1 1.0 
        0.2332460000         0.2310509953
p   1 1.0 
        0.0932980000         0.0734988435
p   1 1.0 
        0.0373190000         0.0233804349
p   1 1.0 
        0.0149280000         0.0074377593
d   4 1.0 
      961.1107520000      3886.1580211301
      349.4948190000      3760.9041730743
      127.0890250000      3496.7670385456
       46.2141910000      1860.8963173302
d   1 1.0 
       16.8051600000       397.6442657049
d   1 1.0 
        6.1109670000        67.7115064157
d   1 1.0 
        2.2221700000        11.5300269891
d   1 1.0 
        0.8080620000         1.9633525042
d   1 1.0 
        0.2938410000         0.3343233977
d   1 1.0 
        0.1068510000         0.0569288771
d   1 1.0 
        0.0388550000         0.0096939814
d   1 1.0 
        0.0141290000         0.0016506883
f   4 1.0 
       25.1300980000       848.4519484560
        8.3766990000       228.5051917205
        2.7922330000        29.8202676408
        0.9307440000         1.8405872106
f   1 1.0 
        0.3102480000         0.4095861926
f   1 1.0 
        0.1034160000         0.0345798006

  2 0
s   7 1.0 
    69507.9909450000         4.1142286333
    10426.1568800000         4.2286655222
     2373.2334061000         5.8493829067
      671.5642007100         8.3358677251
      218.4199979000        10.0089622684
       77.5722497100         8.2783277553
       28.8888152800         2.9822029766
s   1 1.0 
      127.1052718500        26.9794296956
s   1 1.0 
       39.3395829600        11.1952141621
s   1 1.0 
        7.6740680000         3.2860890225
s   1 1.0 
        3.8745627600        -1.9682357562
s   1 1.0 
        1.8385832600         1.1253110111
s   1 1.0 
        0.5022905800        -0.4252324193
s   1 1.0 
        0.1796272300         0.1966478587
p   6 1.0 
      666.5042328400        13.1758105786
      157.6424169000        16.0544655669
       50.2625209800        17.4320614645
       18.5360781100        14.3789566857
        7.2940532800         7.6571902731
        2.9433249000         1.9874071930
p   1 1.0 
        1.0404970800         1.4979287975
p   1 1.0 
        0.3845641500        -0.4316692201
p   1 1.0 
        0.1306964300         0.1120133392
d   2 1.0 
        4.6100000000         7.5524217504
        1.0110000000         2.6539585854
d   1 1.0 
        0.3390000000         0.4293579962
f   1 1.0 
        0.7060000000         2.6050175686

  3 0
s   7 1.0 
    69507.9909450000         4.1142286333
    10426.1568800000         4.2286655222
     2373.2334061000         5.8493829067
      671.5642007100         8.3358677251
      218.4199979000        10.0089622684
       77.5722497100         8.2783277553
       28.8888152800         2.9822029766
s   1 1.0 
      127.1052718500        26.9794296956
s   1 1.0 
       39.3395829600        11.1952141621
s   1 1.0 
        7.6740680000         3.2860890225
s   1 1.0 
        3.8745627600        -1.9682357562
s   1 1.0 
        1.8385832600         1.1253110111
s   1 1.0 
        0.5022905800        -0.4252324193
s   1 1.0 
        0.1796272300         0.1966478587
p   6 1.0 
      666.5042328400        13.1758105786
      157.6424169000        16.0544655669
       50.2625209800        17.4320614645
       18.5360781100        14.3789566857
        7.2940532800         7.6571902731
        2.9433249000         1.9874071930
p   1 1.0 
        1.0404970800         1.4979287975
p   1 1.0 
        0.3845641500        -0.4316692201
p   1 1.0 
        0.1306964300         0.1120133392
d   2 1.0 
        4.6100000000         7.5524217504
        1.0110000000         2.6539585854
d   1 1.0 
        0.3390000000         0.4293579962
f   1 1.0 
        0.7060000000         2.6050175686

  4 0
s   7 1.0 
    69507.9909450000         4.1142286333
    10426.1568800000         4.2286655222
     2373.2334061000         5.8493829067
      671.5642007100         8.3358677251
      218.4199979000        10.0089622684
       77.5722497100         8.2783277553
       28.8888152800         2.9822029766
s   1 1.0 
      127.1052718500        26.9794296956
s   1 1.0 
       39.3395829600        11.1952141621
s   1 1.0 
        7.6740680000         3.2860890225
s   1 1.0 
        3.8745627600        -1.9682357562
s   1 1.0 
        1.8385832600         1.1253110111
s   1 1.0 
        0.5022905800        -0.4252324193
s   1 1.0 
        0.1796272300         0.1966478587
p   6 1.0 
      666.5042328400        13.1758105786
      157.6424169000        16.0544655669
       50.2625209800        17.4320614645
       18.5360781100        14.3789566857
        7.2940532800         7.6571902731
        2.9433249000         1.9874071930
p   1 1.0 
        1.0404970800         1.4979287975
p   1 1.0 
        0.3845641500        -0.4316692201
p   1 1.0 
        0.1306964300         0.1120133392
d   2 1.0 
        4.6100000000         7.5524217504
        1.0110000000         2.6539585854
d   1 1.0 
        0.3390000000         0.4293579962
f   1 1.0 
        0.7060000000         2.6050175686

[5D]
[7F]
[9G]
[MO]
 Sym=     1a
 Ene= -1.66692057528276E+03
 Spin= Alpha
 Occup= 1.000000
  1       0.082189559564
  2       0.094579793069
  3       0.171613864202
  4       0.299213796462
  5       0.344997406103
  6       0.175739860071
  7       0.010843509313
  8       0.003149454268
  9      -0.002291524154
 10       0.001509612562
 11      -0.001020529405
 12       0.000688601807
 13      -0.000461086594
 14       0.000312186047
 15      -0.000206707324
 16       0.000113815201
 17      -0.000037341224
 18       0.000009322197
 19      -0.000000081563
 20      -0.000000041122
 21       0.000000162058
 22       0.000000080883
 23       0.000000056515
 24      -0.000000161451
 25      -0.000000071378
 26      -0.000000047406
 27       0.000000143434
 28       0.000000090836
 29       0.000000063995
 30      -0.000000183911
 31      -0.000000136123
 32      -0.000000097568
 33       0.000000276803
 34       0.000000222145
 35       0.000000158837
 36      -0.000000451291
 37      -0.000000387125
 38      -0.000000269994
 39       0.000000783624
 40       0.000000679117
 41       0.000000451184
 42      -0.000001366432
 43      -0.000000968125
 44      -0.000000680440
 45       0.000001979990
 46       0.000000761195
 47       0.000000777703
 48      -0.000001713644
 49      -0.000000094765
 50       0.000000044504
 51       0.000000128766
 52      -0.000000011322
 53      -0.000000046112
 54       0.000000043805
 55      -0.000000024887
 56       0.000000021755
 57       0.000000034681
 58       0.000000004417
 59      -0.000000015088
 60       0.000000144596
 61      -0.000000126331
 62      -0.000000203308
 63      -0.000000025916
 64       0.000000092150
 65      -0.000000365049
 66       0.000000316198
 67       0.000000508986
 68       0.000000059414
 69      -0.000000225015
 70       0.000000757496
 71      -0.000000658170
 72      -0.000001057762
 73      -0.000000125824
 74       0.000000467436
 75      -0.000001540389
 76       0.000001341930
 77       0.000002152701
 78       0.000000258257
 79      -0.000000945716
 80       0.000002841572
 81      -0.000002487881
 82      -0.000003973822
 83      -0.000000484758
 84       0.000001734989
 85      -0.000003422952
 86       0.000002978288
 87       0.000004730758
 88       0.000000539345
 89      -0.000002098570
 90       0.000000034732
 91       0.000000086853
 92      -0.000000067170
 93       0.000000078764
 94       0.000000116946
 95       0.000000113671
 96      -0.000000117201
 97      -0.000000151751
 98      -0.000000030652
 99       0.000000054452
100      -0.000000061205
101      -0.000000124155
102      -0.000000169332
103       0.000000088501
104      -0.000000228511
105      -0.000000369775
106       0.000000099640
107       0.000000441612
108       0.000000894409
109       0.000001210427
110      -0.000000647196
111       0.000001660188
112       0.000002666634
113      -0.000000717663
114      -0.000000903798
115      -0.000001506302
116      -0.000002119347
117       0.000001166775
118      -0.000003216851
119      -0.000004961388
120       0.000001297056
121       0.000000105989
122      -0.000000120908
123       0.000000118345
124      -0.000000913873
125      -0.000001959386
126      -0.000001798216
127      -0.000000632781
128      -0.000005691984
129       0.000000075038
130       0.000000127101
131       0.000000130811
132      -0.000000491327
133      -0.000000825923
134      -0.000000852905
135      -0.000000559279
136      -0.000001007817
137      -0.000001040115
138      -0.000000474621
139      -0.000001348060
140      -0.000001496638
141       0.000000009296
142      -0.000000317889
143      -0.000000460889
144       0.000000074832
145      -0.000000164019
146       0.000000205899
147       0.000001561441
148       0.000002341855
149      -0.000000514621
150       0.000001126510
151      -0.000000468979
152       0.000000480956
153       0.000000757581
154      -0.000000502046
155       0.000001022084
156       0.000000516059
157      -0.000000052814
158       0.000000102456
159      -0.000000116850
160       0.000000114271
161      -0.000000880702
162      -0.000001882977
163      -0.000001718587
164      -0.000000648210
165      -0.000005832203
166       0.000000086425
167      -0.000000170475
168      -0.000000042403
169      -0.000000549044
170       0.000001084714
171       0.000000268102
172      -0.000000609191
173       0.000001216431
174       0.000000294616
175      -0.000000868459
176       0.000001957317
177       0.000000318326
178       0.000000302914
179      -0.000000005266
180      -0.000000280698
181       0.000000221833
182       0.000000378938
183      -0.000001406225
184      -0.000000220053
185       0.000001205858
186      -0.000001267167
187      -0.000001943237
188       0.000000486001
189      -0.000000337517
190       0.000000681936
191       0.000000412532
192       0.000000486538
193       0.000001161985
194      -0.000000177161
195       0.000000105358
196      -0.000000120184
197       0.000000117623
198      -0.000000908054
199      -0.000001946098
200      -0.000001784191
201      -0.000000624721
202      -0.000005671096
203      -0.000000191490
204       0.000000030615
205      -0.000000033779
206       0.000001245302
207      -0.000000196125
208       0.000000220589
209       0.000001496786
210      -0.000000255273
211       0.000000235376
212       0.000002009635
213      -0.000000429776
214       0.000000047408
215       0.000000308076
216      -0.000000239122
217      -0.000000097538
218      -0.000000405478
219       0.000000145731
220      -0.000001499609
221       0.000001131543
222       0.000000189499
223       0.000002305940
224      -0.000000741403
225       0.000000422689
226       0.000000815188
227      -0.000000107863
228      -0.000000539978
229       0.000000118370
230       0.000001076201
231      -0.000000515279
 Sym=     1a
 Ene= -2.75728370266841E+02
 Spin= Alpha
 Occup= 1.000000
  1      -0.030283164707
  2      -0.038285803022
  3      -0.070591620146
  4      -0.145188260442
  5      -0.206549801036
  6      -0.093564372329
  7       0.455755004416
  8       0.612529230399
  9       0.107014282105
 10       0.003777921064
 11      -0.003245173708
 12       0.002329912232
 13      -0.001723078558
 14       0.001216888736
 15      -0.000812661691
 16       0.000449697846
 17      -0.000147845986
 18       0.000037007950
 19       0.000000496788
 20       0.000001409054
 21      -0.000000805683
 22       0.000000607489
 23       0.000001919640
 24      -0.000000993397
 25       0.000000311385
 26       0.000001467541
 27      -0.000000411076
 28       0.000000038717
 29       0.000000244628
 30       0.000000085082
 31      -0.000000321688
 32      -0.000000213702
 33       0.000000632438
 34       0.000000791740
 35       0.000000567406
 36      -0.000001590157
 37      -0.000001456903
 38      -0.000001007287
 39       0.000002942885
 40       0.000002645248
 41       0.000001739506
 42      -0.000005315908
 43      -0.000003853258
 44      -0.000002693203
 45       0.000007875638
 46       0.000002990756
 47       0.000003086961
 48      -0.000006748117
 49      -0.000000367224
 50       0.000000186089
 51       0.000000488838
 52      -0.000000046468
 53      -0.000000186046
 54       0.000000178624
 55      -0.000000624311
 56       0.000000653653
 57       0.000000996803
 58       0.000000331644
 59      -0.000000557465
 60       0.000000686981
 61      -0.000000567736
 62      -0.000000900962
 63      -0.000000046087
 64       0.000000304660
 65      -0.000001211784
 66       0.000001069258
 67       0.000001694103
 68       0.000000219376
 69      -0.000000724579
 70       0.000002902873
 71      -0.000002520408
 72      -0.000004036729
 73      -0.000000467836
 74       0.000001744754
 75      -0.000006129702
 76       0.000005344267
 77       0.000008566558
 78       0.000001029790
 79      -0.000003752737
 80       0.000011361340
 81      -0.000009952513
 82      -0.000015889744
 83      -0.000001940140
 84       0.000006925798
 85      -0.000013580710
 86       0.000011812794
 87       0.000018763209
 88       0.000002134749
 89      -0.000008323201
 90       0.000000113758
 91       0.000000371581
 92      -0.000000233454
 93       0.000000320956
 94       0.000000453575
 95       0.000000454649
 96      -0.000000469348
 97      -0.000000606934
 98      -0.000000123035
 99       0.000000217647
100      -0.000000263056
101      -0.000000558599
102      -0.000000770440
103       0.000000390458
104      -0.000001037520
105      -0.000001684545
106       0.000000467649
107       0.000001798500
108       0.000003654264
109       0.000004945449
110      -0.000002641317
111       0.000006781708
112       0.000010893192
113      -0.000002936694
114      -0.000003613093
115      -0.000006025046
116      -0.000008478196
117       0.000004664871
118      -0.000012867398
119      -0.000019847277
120       0.000005190843
121       0.000000177570
122      -0.000000257165
123       0.000000427763
124      -0.000003239541
125      -0.000007183083
126      -0.000006669894
127      -0.000002155814
128      -0.000022427188
129       0.000000309987
130       0.000000524134
131       0.000000540380
132      -0.000001974875
133      -0.000003320659
134      -0.000003430316
135      -0.000002196430
136      -0.000003970412
137      -0.000004096815
138      -0.000001812719
139      -0.000005261837
140      -0.000005851667
141       0.000000025130
142      -0.000001300154
143      -0.000001891198
144       0.000000314562
145      -0.000000686173
146       0.000000832770
147       0.000006266681
148       0.000009406059
149      -0.000002072149
150       0.000004528845
151      -0.000001877829
152       0.000001927047
153       0.000003037767
154      -0.000002015387
155       0.000004098520
156       0.000002071001
157      -0.000000210726
158       0.000000171481
159      -0.000000248327
160       0.000000412777
161      -0.000003119764
162      -0.000006898956
163      -0.000006371410
164      -0.000002245283
165      -0.000023026445
166       0.000000355722
167      -0.000000702540
168      -0.000000174047
169      -0.000002203652
170       0.000004354615
171       0.000001075373
172      -0.000002390331
173       0.000004772772
174       0.000001156038
175      -0.000003392132
176       0.000007664178
177       0.000001233639
178       0.000001237196
179      -0.000000009297
180      -0.000001140580
181       0.000000918773
182       0.000001556511
183      -0.000005640489
184      -0.000000888159
185       0.000004834076
186      -0.000005088781
187      -0.000007798056
188       0.000001945750
189      -0.000001350973
190       0.000002729735
191       0.000001649663
192       0.000001950310
193       0.000004654045
194      -0.000000710243
195       0.000000176470
196      -0.000000255570
197       0.000000425072
198      -0.000003218253
199      -0.000007132952
200      -0.000006616379
201      -0.000002127424
202      -0.000022348917
203      -0.000000790325
204       0.000000125515
205      -0.000000139254
206       0.000005006032
207      -0.000000787742
208       0.000000886048
209       0.000005890827
210      -0.000001008395
211       0.000000922619
212       0.000007840474
213      -0.000001692347
214       0.000000151422
215       0.000001260764
216      -0.000000975233
217      -0.000000385429
218      -0.000001675254
219       0.000000598078
220      -0.000006020136
221       0.000004539301
222       0.000000754837
223       0.000009263861
224      -0.000002978039
225       0.000001693710
226       0.000003267193
227      -0.000000432731
228      -0.000002163355
229       0.000000477345
230       0.000004315600
231      -0.000002066516
 Sym=     1a
 Ene= -2.46519177725578E+02
 Spin= Alpha
 Occup= 1.000000
  1      -0.000000040468
  2      -0.000000054241
  3      -0.000000085723
  4      -0.000000228263
  5      -0.000000206769
  6      -0.000000304722
  7       0.000001144899
  8       0.000000225057
  9       0.000000937777
 10      -0.000002375394
 11       0.000004203628
 12      -0.000006763786
 13       0.000010859307
 14      -0.000015263989
 15       0.000011602072
 16       0.000000347789
 17      -0.000001769248
 18       0.000000573279
 19       0.300805890710
 20      -0.180295152466
 21       0.006092577705
 22       0.411176121709
 23      -0.246448045587
 24       0.008328058168
 25       0.263776827041
 26      -0.158100922768
 27       0.005342619235
 28       0.014767159865
 29      -0.008850499208
 30       0.000299122394
 31       0.004701654493
 32      -0.002818983431
 33       0.000095189096
 34      -0.003266615057
 35       0.001959624104
 36      -0.000066090238
 37       0.001993507486
 38      -0.001197848240
 39       0.000040276037
 40      -0.001282363737
 41       0.000773515508
 42      -0.000025954502
 43       0.000848263691
 44      -0.000514301297
 45       0.000017623540
 46      -0.000479047436
 47       0.000290770732
 48      -0.000010598178
 49       0.000174301923
 50      -0.000104405219
 51       0.000003522196
 52      -0.000048743698
 53       0.000028818500
 54      -0.000001031515
 55       0.000000092059
 56      -0.000000126049
 57       0.000000078691
 58       0.000000529474
 59       0.000000395103
 60      -0.000000174401
 61       0.000001235205
 62      -0.000001032862
 63       0.000003331203
 64       0.000000903975
 65       0.000000719284
 66      -0.000003411929
 67       0.000002815624
 68      -0.000010354652
 69      -0.000002694067
 70      -0.000001581156
 71       0.000008424363
 72      -0.000006946377
 73       0.000024737676
 74       0.000006563917
 75       0.000003411806
 76      -0.000018035934
 77       0.000014831367
 78      -0.000052601340
 79      -0.000013898731
 80      -0.000006080147
 81       0.000031526109
 82      -0.000026079887
 83       0.000091609923
 84       0.000023992504
 85       0.000003614361
 86      -0.000022614060
 87       0.000020707468
 88      -0.000066279333
 89      -0.000017959049
 90       0.000000260616
 91       0.000001124565
 92      -0.000000911105
 93       0.000002216265
 94       0.000000819823
 95      -0.000000221525
 96       0.000001019963
 97      -0.000000896706
 98       0.000003275493
 99       0.000000897623
100       0.000000072740
101       0.000003509962
102      -0.000002374385
103      -0.000002875925
104      -0.000001169657
105       0.000000119503
106      -0.000001204154
107      -0.000000585006
108      -0.000023423303
109       0.000015748938
110       0.000018821756
111       0.000007482672
112      -0.000001190702
113       0.000007978239
114       0.000000234542
115       0.000021821758
116      -0.000015771926
117      -0.000014866267
118      -0.000006968073
119      -0.000000321728
120      -0.000008407780
121       0.000000031438
122      -0.000000045358
123       0.000000077940
124      -0.000000588873
125      -0.000001291558
126      -0.000001171251
127      -0.000000326004
128      -0.000004506301
129      -0.000000140649
130       0.000000276914
131       0.000000125573
132       0.000000484630
133      -0.000001424111
134      -0.000000747952
135      -0.000001058952
136      -0.000000768871
137      -0.000000872151
138      -0.000002059402
139      -0.000000598901
140      -0.000000856564
141      -0.000000031161
142       0.000000329840
143      -0.000000919723
144       0.000001452093
145       0.000000458587
146       0.000000249075
147      -0.000000572912
148       0.000003309707
149      -0.000004349174
150      -0.000000876955
151      -0.000000420452
152      -0.000001596242
153       0.000001838501
154      -0.000005097321
155      -0.000001397683
156       0.000000876977
157       0.000003954189
158       0.000000543522
159      -0.000000782660
160       0.000001339799
161      -0.000009960526
162      -0.000021233010
163      -0.000017342463
164       0.000011382730
165      -0.000028539383
166       0.000002114523
167      -0.000004478334
168      -0.000001121047
169      -0.000013272402
170       0.000027507514
171       0.000006826839
172      -0.000022208254
173       0.000043176062
174       0.000010419495
175      -0.000008718854
176       0.000021069658
177       0.000005772521
178       0.000004944138
179       0.000002291402
180      -0.000004033215
181       0.000006988834
182       0.000008280074
183      -0.000025223681
184      -0.000010683172
185       0.000019595879
186      -0.000032243716
187      -0.000040753167
188       0.000008163937
189      -0.000004603396
190       0.000010475712
191       0.000007720777
192       0.000008328015
193       0.000018163803
194      -0.000006631381
195      -0.000000630939
196       0.000000908881
197      -0.000001557117
198       0.000011610000
199       0.000024856289
200       0.000020541519
201      -0.000013254865
202       0.000028992341
203       0.000005570297
204      -0.000000673722
205       0.000001097499
206      -0.000034799445
207       0.000004407920
208      -0.000006789524
209      -0.000056687066
210       0.000008035154
211      -0.000010782695
212      -0.000023197198
213       0.000001485457
214      -0.000005566251
215      -0.000005821231
216       0.000004332503
217      -0.000000963064
218       0.000011675016
219      -0.000002817072
220       0.000030552170
221      -0.000021926127
222       0.000004110003
223      -0.000058105908
224       0.000015314320
225      -0.000008049003
226      -0.000014013678
227       0.000001514235
228       0.000010749403
229      -0.000002227119
230      -0.000020902714
231       0.000006458706
 Sym=     1a
 Ene= -2.46519136567371E+02
 Spin= Alpha
 Occup= 1.000000
  1      -0.000000072692
  2      -0.000000094790
  3      -0.000000161741
  4      -0.000000380640
  5      -0.000000435587
  6      -0.000000387139
  7       0.000001618761
  8       0.000001017959
  9       0.000000761039
 10      -0.000002164191
 11       0.000003830272
 12      -0.000006145650
 13       0.000009856408
 14      -0.000013922248
 15       0.000011101875
 16      -0.000000414639
 17      -0.000002051013
 18       0.000000641869
 19      -0.136576002524
 20      -0.235344090692
 21      -0.221331876398
 22      -0.186687868196
 23      -0.321695319550
 24      -0.302542027325
 25      -0.119763582650
 26      -0.206373355955
 27      -0.194085841391
 28      -0.006704688579
 29      -0.011552615978
 30      -0.010866243486
 31      -0.002134732673
 32      -0.003679741754
 33      -0.003458216033
 34       0.001483120012
 35       0.002557908811
 36       0.002401268833
 37      -0.000905114947
 38      -0.001563564208
 39      -0.001462694913
 40       0.000582567621
 41       0.001010033699
 42       0.000936449234
 43      -0.000386346784
 44      -0.000672508979
 45      -0.000614850702
 46       0.000218728961
 47       0.000380336190
 48       0.000346481303
 49      -0.000079233754
 50      -0.000136451897
 51      -0.000128143308
 52       0.000022256412
 53       0.000037786109
 54       0.000036254163
 55       0.000000386416
 56       0.000000047592
 57      -0.000000131578
 58       0.000000317315
 59      -0.000000180666
 60       0.000001384450
 61       0.000001209822
 62       0.000001670972
 63      -0.000000872771
 64       0.000002678371
 65      -0.000005398213
 66      -0.000003840846
 67      -0.000005422215
 68       0.000002635662
 69      -0.000008042917
 70       0.000012596409
 71       0.000009171949
 72       0.000012761245
 73      -0.000006169409
 74       0.000019311023
 75      -0.000026878039
 76      -0.000019553226
 77      -0.000027187315
 78       0.000013169193
 79      -0.000041167413
 80       0.000046769189
 81       0.000034094065
 82       0.000047514417
 83      -0.000023284778
 84       0.000071932182
 85      -0.000034241470
 86      -0.000024249699
 87      -0.000033410013
 88       0.000017307508
 89      -0.000052957521
 90       0.000000857598
 91       0.000000680319
 92       0.000000847639
 93      -0.000000347290
 94       0.000002168057
 95       0.000001755515
 96       0.000001218608
 97       0.000001666382
 98      -0.000000795767
 99       0.000002465699
100      -0.000003226549
101       0.000001177855
102       0.000001664988
103      -0.000001754271
104       0.000002521751
105      -0.000001858059
106       0.000000900441
107       0.000021460602
108      -0.000007634523
109      -0.000011054707
110       0.000011919443
111      -0.000017194033
112       0.000012386226
113      -0.000006167671
114      -0.000018950116
115       0.000005520976
116       0.000010992427
117      -0.000013172511
118       0.000014459615
119      -0.000011680286
120       0.000009144987
121      -0.000000702231
122       0.000001011657
123      -0.000001733486
124       0.000012933538
125       0.000027720025
126       0.000022993453
127      -0.000014254219
128       0.000033271484
129      -0.000002535182
130      -0.000003966436
131      -0.000004182183
132       0.000015855170
133       0.000024833727
134       0.000026147306
135       0.000025939095
136       0.000040519181
137       0.000042555064
138       0.000013463169
139       0.000015119666
140       0.000017229215
141       0.000002838722
142       0.000006737583
143       0.000011141383
144      -0.000003433906
145       0.000007128096
146      -0.000013563753
147      -0.000034922204
148      -0.000056731001
149       0.000017029458
150      -0.000035289246
151       0.000008463582
152      -0.000009615679
153      -0.000015066036
154       0.000009671618
155      -0.000021143696
156      -0.000010367868
157       0.000001481743
158       0.000000360826
159      -0.000000519602
160       0.000000889485
161      -0.000006613020
162      -0.000014097787
163      -0.000011515669
164       0.000007561866
165      -0.000018787315
166       0.000001643619
167      -0.000002891296
168      -0.000000585552
169      -0.000009836939
170       0.000017915533
171       0.000003862067
172      -0.000014209579
173       0.000028886155
174       0.000007340057
175      -0.000009400316
176       0.000012842455
177       0.000001368367
178       0.000004100366
179       0.000001823381
180      -0.000001898146
181       0.000003662704
182       0.000005963119
183      -0.000018876176
184      -0.000007953852
185       0.000011126153
186      -0.000018973022
187      -0.000028111117
188       0.000003590412
189      -0.000005435819
190       0.000008592719
191       0.000001193663
192       0.000004209789
193       0.000014057317
194       0.000001917035
195       0.000000290570
196      -0.000000418646
197       0.000000717484
198      -0.000005357967
199      -0.000011504157
200      -0.000009618495
201       0.000005048619
202      -0.000016519545
203      -0.000002474155
204       0.000000545304
205      -0.000000335457