[Molden Format]
[Title]
 Molden file created by orca_2mkl for BaseName=/home/smirnovaanastasia2304_2125/_scratch/HERBD/Eu_Cl_cc

[Atoms] AU
Eu   1  63          0.2847949565         0.5029884051        -0.6431777383 
Cl   2  17         -1.5929673213        -2.4872424197        -3.6971754817 
Cl   3  17         -1.9487725167         4.5306580903         0.3239803176 
Cl   4  17          4.8235335157        -0.3309231714         0.1790572204 
[GTO]
  1 0
s   6 1.0 
  1097819.8713740001      2094.1051919023
   487919.9428330000      -553.4936466776
   216853.3079260000      1227.4145046986
    96379.2479670000       287.0671366721
    42835.2213190000       753.5424106054
    19037.8761420000       575.9766746901
s   1 1.0 
     8461.2782850000       628.7631433054
s   1 1.0 
     3760.5681270000       342.2553045042
s   1 1.0 
     1671.3636120000       186.3001906214
s   1 1.0 
      742.8282720000       101.4089791124
s   1 1.0 
      330.1458990000        55.2000565222
s   1 1.0 
      146.7315110000        30.0471049961
s   1 1.0 
       65.2140050000        16.3555723516
s   1 1.0 
       28.9840020000         8.9028458850
s   1 1.0 
       12.8817790000         4.8460955778
s   1 1.0 
        5.7252350000         2.6378802750
s   1 1.0 
        2.5445490000         1.4358801973
s   1 1.0 
        1.1309110000         0.7815943539
s   1 1.0 
        0.5026270000         0.4254460079
s   1 1.0 
        0.2233900000         0.2315836467
s   1 1.0 
        0.0992840000         0.1260577472
s   1 1.0 
        0.0441260000         0.0686168872
s   1 1.0 
        0.0196120000         0.0373509374
p   5 1.0 
    14914.5995620000      2930.9495136540
     5965.8398250000      1201.0763570229
     2386.3359300000      1902.9439950739
      954.5343720000      1878.8141301970
      381.8137490000      1791.4157676492
p   1 1.0 
      152.7255000000       765.2961568742
p   1 1.0 
       61.0902000000       243.4470529600
p   1 1.0 
       24.4360800000        77.4425260895
p   1 1.0 
        9.7744320000        24.6351096643
p   1 1.0 
        3.9097730000         7.8366331475
p   1 1.0 
        1.5639090000         2.4928975832
p   1 1.0 
        0.6255640000         0.7930120249
p   1 1.0 
        0.2502250000         0.2522629443
p   1 1.0 
        0.1000900000         0.0802469342
p   1 1.0 
        0.0400360000         0.0255272151
p   1 1.0 
        0.0160140000         0.0081201653
d   4 1.0 
     1048.0606430000      4504.7143273632
      381.1129610000      4335.1022993005
      138.5865310000      4042.3256851319
       50.3951020000      2169.6801268913
d   1 1.0 
       18.3254920000       462.7191349861
d   1 1.0 
        6.6638150000        78.7925605433
d   1 1.0 
        2.4232060000        13.4169305260
d   1 1.0 
        0.8811660000         2.2846575564
d   1 1.0 
        0.3204240000         0.3890352011
d   1 1.0 
        0.1165180000         0.0662457271
d   1 1.0 
        0.0423700000         0.0112803453
d   1 1.0 
        0.0154070000         0.0019207760
f   4 1.0 
       29.2179750000      1158.8421481478
        9.7393250000       321.6749227643
        3.2464420000        42.1545037835
        1.0821470000         2.5534487342
f   1 1.0 
        0.3607160000         0.5749396280
f   1 1.0 
        0.1202390000         0.0485402635

  2 0
s   7 1.0 
    69507.9909450000         4.1142286333
    10426.1568800000         4.2286655222
     2373.2334061000         5.8493829067
      671.5642007100         8.3358677251
      218.4199979000        10.0089622684
       77.5722497100         8.2783277553
       28.8888152800         2.9822029766
s   1 1.0 
      127.1052718500        26.9794296956
s   1 1.0 
       39.3395829600        11.1952141621
s   1 1.0 
        7.6740680000         3.2860890225
s   1 1.0 
        3.8745627600        -1.9682357562
s   1 1.0 
        1.8385832600         1.1253110111
s   1 1.0 
        0.5022905800        -0.4252324193
s   1 1.0 
        0.1796272300         0.1966478587
p   6 1.0 
      666.5042328400        13.1758105786
      157.6424169000        16.0544655669
       50.2625209800        17.4320614645
       18.5360781100        14.3789566857
        7.2940532800         7.6571902731
        2.9433249000         1.9874071930
p   1 1.0 
        1.0404970800         1.4979287975
p   1 1.0 
        0.3845641500        -0.4316692201
p   1 1.0 
        0.1306964300         0.1120133392
d   2 1.0 
        4.6100000000         7.5524217504
        1.0110000000         2.6539585854
d   1 1.0 
        0.3390000000         0.4293579962
f   1 1.0 
        0.7060000000         2.6050175686

  3 0
s   7 1.0 
    69507.9909450000         4.1142286333
    10426.1568800000         4.2286655222
     2373.2334061000         5.8493829067
      671.5642007100         8.3358677251
      218.4199979000        10.0089622684
       77.5722497100         8.2783277553
       28.8888152800         2.9822029766
s   1 1.0 
      127.1052718500        26.9794296956
s   1 1.0 
       39.3395829600        11.1952141621
s   1 1.0 
        7.6740680000         3.2860890225
s   1 1.0 
        3.8745627600        -1.9682357562
s   1 1.0 
        1.8385832600         1.1253110111
s   1 1.0 
        0.5022905800        -0.4252324193
s   1 1.0 
        0.1796272300         0.1966478587
p   6 1.0 
      666.5042328400        13.1758105786
      157.6424169000        16.0544655669
       50.2625209800        17.4320614645
       18.5360781100        14.3789566857
        7.2940532800         7.6571902731
        2.9433249000         1.9874071930
p   1 1.0 
        1.0404970800         1.4979287975
p   1 1.0 
        0.3845641500        -0.4316692201
p   1 1.0 
        0.1306964300         0.1120133392
d   2 1.0 
        4.6100000000         7.5524217504
        1.0110000000         2.6539585854
d   1 1.0 
        0.3390000000         0.4293579962
f   1 1.0 
        0.7060000000         2.6050175686

  4 0
s   7 1.0 
    69507.9909450000         4.1142286333
    10426.1568800000         4.2286655222
     2373.2334061000         5.8493829067
      671.5642007100         8.3358677251
      218.4199979000        10.0089622684
       77.5722497100         8.2783277553
       28.8888152800         2.9822029766
s   1 1.0 
      127.1052718500        26.9794296956
s   1 1.0 
       39.3395829600        11.1952141621
s   1 1.0 
        7.6740680000         3.2860890225
s   1 1.0 
        3.8745627600        -1.9682357562
s   1 1.0 
        1.8385832600         1.1253110111
s   1 1.0 
        0.5022905800        -0.4252324193
s   1 1.0 
        0.1796272300         0.1966478587
p   6 1.0 
      666.5042328400        13.1758105786
      157.6424169000        16.0544655669
       50.2625209800        17.4320614645
       18.5360781100        14.3789566857
        7.2940532800         7.6571902731
        2.9433249000         1.9874071930
p   1 1.0 
        1.0404970800         1.4979287975
p   1 1.0 
        0.3845641500        -0.4316692201
p   1 1.0 
        0.1306964300         0.1120133392
d   2 1.0 
        4.6100000000         7.5524217504
        1.0110000000         2.6539585854
d   1 1.0 
        0.3390000000         0.4293579962
f   1 1.0 
        0.7060000000         2.6050175686

[5D]
[7F]
[9G]
[MO]
 Sym=     1a
 Ene= -1.78976739242426E+03
 Spin= Alpha
 Occup= 1.000000
  1       0.085359197376
  2       0.096810783356
  3       0.173193637016
  4       0.299636843843
  5       0.342337083306
  6       0.173493817285
  7       0.010395401713
  8       0.003201733501
  9      -0.002331035067
 10       0.001537846078
 11      -0.001037685347
 12       0.000699001875
 13      -0.000467018958
 14       0.000315214292
 15      -0.000210356019
 16       0.000119045597
 17      -0.000037717986
 18       0.000009121842
 19      -0.000000051839
 20      -0.000000007545
 21       0.000000161576
 22       0.000000049677
 23       0.000000016963
 24      -0.000000151727
 25      -0.000000043999
 26      -0.000000012683
 27       0.000000137280
 28       0.000000055436
 29       0.000000018209
 30      -0.000000174323
 31      -0.000000082634
 32      -0.000000028158
 33       0.000000261552
 34       0.000000133579
 35       0.000000044177
 36      -0.000000425246
 37      -0.000000229734
 38      -0.000000072384
 39       0.000000735213
 40       0.000000395588
 41       0.000000120467
 42      -0.000001277598
 43      -0.000000590192
 44      -0.000000289918
 45       0.000001901255
 46       0.000000615949
 47       0.000000646417
 48      -0.000001867091
 49      -0.000000059539
 50       0.000000097448
 51       0.000000176879
 52      -0.000000019493
 53      -0.000000047640
 54       0.000000055571
 55      -0.000000166584
 56       0.000000151164
 57       0.000000232375
 58       0.000000037309
 59      -0.000000105187
 60       0.000000240869
 61      -0.000000208467
 62      -0.000000329764
 63      -0.000000048886
 64       0.000000160209
 65      -0.000000394901
 66       0.000000328236
 67       0.000000532801
 68       0.000000074370
 69      -0.000000274557
 70       0.000000723304
 71      -0.000000595935
 72      -0.000000973668
 73      -0.000000132982
 74       0.000000507256
 75      -0.000001405159
 76       0.000001157326
 77       0.000001893318
 78       0.000000256789
 79      -0.000000985843
 80       0.000002637041
 81      -0.000002179321
 82      -0.000003550815
 83      -0.000000479074
 84       0.000001833997
 85      -0.000003946495
 86       0.000003170960
 87       0.000005147457
 88       0.000000678172
 89      -0.000002749662
 90       0.000000109098
 91       0.000000107146
 92      -0.000000052306
 93       0.000000024303
 94       0.000000298212
 95       0.000000156716
 96      -0.000000149589
 97      -0.000000213245
 98      -0.000000032425
 99       0.000000081521
100      -0.000000047953
101      -0.000000106075
102      -0.000000144003
103       0.000000083102
104      -0.000000213882
105      -0.000000327136
106       0.000000088359
107       0.000000334821
108       0.000000718146
109       0.000000975834
110      -0.000000569035
111       0.000001472927
112       0.000002237515
113      -0.000000602231
114      -0.000000945331
115      -0.000001516598
116      -0.000002156781
117       0.000001244901
118      -0.000003479325
119      -0.000005250064
120       0.000001369472
121       0.000000098924
122      -0.000000112067
123       0.000000107646
124      -0.000000832032
125      -0.000001773274
126      -0.000001604833
127      -0.000000717066
128      -0.000006634973
129       0.000000061121
130       0.000000100240
131       0.000000099874
132      -0.000000389668
133      -0.000000637664
134      -0.000000638335
135      -0.000000199972
136      -0.000000373146
137      -0.000000363450
138      -0.000000790126
139      -0.000001856351
140      -0.000001961573
141       0.000000041000
142      -0.000000277560
143      -0.000000380362
144       0.000000046252
145      -0.000000123291
146       0.000000030359
147       0.000001270332
148       0.000001824330
149      -0.000000348973
150       0.000000846411
151      -0.000000540622
152       0.000000481434
153       0.000000747758
154      -0.000000512839
155       0.000001057000
156       0.000000520278
157      -0.000000054209
158       0.000000093825
159      -0.000000106259
160       0.000000101954
161      -0.000000786217
162      -0.000001670422
163      -0.000001505045
164      -0.000000797541
165      -0.000006958199
166       0.000000071845
167      -0.000000125175
168      -0.000000032930
169      -0.000000436760
170       0.000000763729
171       0.000000198433
172      -0.000000162895
173       0.000000239592
174       0.000000076886
175      -0.000001629009
176       0.000002591792
177       0.000000390774
178       0.000000257176
179      -0.000000020040
180      -0.000000261545
181       0.000000158242
182       0.000000295623
183      -0.000001072030
184      -0.000000104934
185       0.000001001658
186      -0.000000825471
187      -0.000001411423
188       0.000000491827
189      -0.000000396982
190       0.000000699344
191       0.000000406462
192       0.000000497483
193       0.000001183262
194      -0.000000027751
195       0.000000096043
196      -0.000000108786
197       0.000000104432
198      -0.000000806167
199      -0.000001715110
200      -0.000001547589
201      -0.000000743393
202      -0.000006694727
203      -0.000000146541
204       0.000000029843
205      -0.000000027382
206       0.000000914959
207      -0.000000184473
208       0.000000169274
209       0.000000433440
210      -0.000000123612
211       0.000000068325
212       0.000002835061
213      -0.000000942729
214       0.000000087198
215       0.000000262216
216      -0.000000228253
217      -0.000000100496
218      -0.000000314459
219       0.000000110393
220      -0.000001148662
221       0.000000952053
222       0.000000218272
223       0.000001640434
224      -0.000000561866
225       0.000000425758
226       0.000000854899
227      -0.000000157924
228      -0.000000542272
229       0.000000125476
230       0.000001016147
231      -0.000000650820
 Sym=     1a
 Ene= -2.98795118699777E+02
 Spin= Alpha
 Occup= 1.000000
  1      -0.031728417711
  2      -0.039607859635
  3      -0.071909079535
  4      -0.146779703747
  5      -0.205771910018
  6      -0.087373005540
  7       0.464203212115
  8       0.606555318647
  9       0.101193890044
 10       0.004006209055
 11      -0.003498579758
 12       0.002501361919
 13      -0.001824963400
 14       0.001280627664
 15      -0.000862045407
 16       0.000490580850
 17      -0.000155560537
 18       0.000037694403
 19       0.000000087427
 20       0.000000396951
 21      -0.000000089277
 22       0.000000085658
 23       0.000000602038
 24       0.000000002267
 25      -0.000000065945
 26       0.000000404368
 27       0.000000412846
 28      -0.000000057654
 29      -0.000000117369
 30       0.000000132896
 31      -0.000000192540
 32      -0.000000012416
 33       0.000000644638
 34       0.000000485596
 35       0.000000135134
 36      -0.000001562277
 37      -0.000000894304
 38      -0.000000266310
 39       0.000002877077
 40       0.000001594795
 41       0.000000467239
 42      -0.000005169628
 43      -0.000002438331
 44      -0.000001192043
 45       0.000007865780
 46       0.000002540452
 47       0.000002704099
 48      -0.000007689247
 49      -0.000000242546
 50       0.000000409133
 51       0.000000718274
 52      -0.000000081717
 53      -0.000000200138
 54       0.000000233011
 55      -0.000021203903
 56       0.000019545539
 57       0.000029733208
 58       0.000004877182
 59      -0.000013107479
 60       0.000000835886
 61      -0.000000692597
 62      -0.000001136825
 63      -0.000000168058
 64       0.000000597486
 65      -0.000000810847
 66       0.000000666734
 67       0.000001106520
 68       0.000000142859
 69      -0.000000574932
 70       0.000002756499
 71      -0.000002271705
 72      -0.000003720263
 73      -0.000000507830
 74       0.000001938610
 75      -0.000005780207
 76       0.000004766059
 77       0.000007795488
 78       0.000001057768
 79      -0.000004052564
 80       0.000010933485
 81      -0.000009041089
 82      -0.000014728456
 83      -0.000001987352
 84       0.000007600379
 85      -0.000016366321
 86       0.000013143403
 87       0.000021336071
 88       0.000002810563
 89      -0.000011405332
 90       0.000000436556
 91       0.000000467170
 92      -0.000000190747
 93       0.000000105924
 94       0.000001236344
 95       0.000000651587
 96      -0.000000623238
 97      -0.000000886961
 98      -0.000000135042
 99       0.000000337313
100      -0.000000213907
101      -0.000000493852
102      -0.000000666727
103       0.000000391469
104      -0.000000992024
105      -0.000001515375
106       0.000000412503
107       0.000001414998
108       0.000003043759
109       0.000004133987
110      -0.000002413060
111       0.000006240234
112       0.000009477845
113      -0.000002552002
114      -0.000003945131
115      -0.000006327019
116      -0.000008998158
117       0.000005193859
118      -0.000014517455
119      -0.000021906111
120       0.000005713924
121       0.000000176793
122      -0.000000253524
123       0.000000411649
124      -0.000003091186
125      -0.000006802643
126      -0.000006227229
127      -0.000002706601
128      -0.000027457089
129       0.000000262481
130       0.000000430248
131       0.000000429596
132      -0.000001623209
133      -0.000002657503
134      -0.000002661262
135      -0.000000779709
136      -0.000001472084
137      -0.000001430157
138      -0.000003226581
139      -0.000007640830
140      -0.000008078325
141       0.000000162367
142      -0.000001181600
143      -0.000001625932
144       0.000000205253
145      -0.000000538928
146       0.000000124676
147       0.000005295212
148       0.000007605718
149      -0.000001454102
150       0.000003525892
151      -0.000002248788
152       0.000002002287
153       0.000003111121
154      -0.000002134944
155       0.000004397304
156       0.000002164840
157      -0.000000224697
158       0.000000167488
159      -0.000000240205
160       0.000000389665
161      -0.000002919407
162      -0.000006406515
163      -0.000005841241
164      -0.000003080200
165      -0.000028856070
166       0.000000307768
167      -0.000000537103
168      -0.000000140399
169      -0.000001815572
170       0.000003174060
171       0.000000823699
172      -0.000000613672
173       0.000000878535
174       0.000000290730
175      -0.000006732798
176       0.000010695191
177       0.000001600042
178       0.000001092866
179      -0.000000074394
180      -0.000001103884
181       0.000000681110
182       0.000001267345
183      -0.000004461350
184      -0.000000433664
185       0.000004170489
186      -0.000003431686
187      -0.000005871836
188       0.000002042889
189      -0.000001649379
190       0.000002904738
191       0.000001687655
192       0.000002066853
193       0.000004915450
194      -0.000000113951
195       0.000000171511
196      -0.000000245967
197       0.000000399178
198      -0.000002993726
199      -0.000006577405
200      -0.000006004117
201      -0.000002836273
202      -0.000027733666
203      -0.000000628950
204       0.000000127597
205      -0.000000116885
206       0.000003807670
207      -0.000000768485
208       0.000000702941
209       0.000001674500
210      -0.000000493064
211       0.000000259022
212       0.000011683157
213      -0.000003911193
214       0.000000332921
215       0.000001116284
216      -0.000000965570
217      -0.000000415393
218      -0.000001351837
219       0.000000476815
220      -0.000004784107
221       0.000003965433
222       0.000000912515
223       0.000006829026
224      -0.000002341190
225       0.000001769071
226       0.000003553955
227      -0.000000657360
228      -0.000002252889
229       0.000000522166
230       0.000004223093
231      -0.000002707791
 Sym=     1a
 Ene= -2.66629946439615E+02
 Spin= Alpha
 Occup= 1.000000
  1       0.000000031148
  2       0.000000042633
  3       0.000000059891
  4       0.000000185529
  5       0.000000114430
  6       0.000000305120
  7      -0.000001087454
  8       0.000000246079
  9      -0.000001325492
 10       0.000002940809
 11      -0.000005167763
 12       0.000008280808
 13      -0.000013043519
 14       0.000017742194
 15      -0.000012799567
 16      -0.000000774664
 17       0.000002224766
 18      -0.000000966830
 19      -0.242183042240
 20       0.251424075512
 21       0.053897634305
 22      -0.328796234332
 23       0.341342163762
 24       0.073173327025
 25      -0.209639974859
 26       0.217639248327
 27       0.046655205047
 28      -0.011208505661
 29       0.011636114811
 30       0.002494399993
 31      -0.003801934457
 32       0.003947144930
 33       0.000846184253
 34       0.002634169415
 35      -0.002734936650
 36      -0.000586341668
 37      -0.001609534538
 38       0.001671394634
 39       0.000358398249
 40       0.001031346567
 41      -0.001071386813
 42      -0.000229848710
 43      -0.000680310546
 44       0.000706694519
 45       0.000151393503
 46       0.000394221947
 47      -0.000408467335
 48      -0.000086365782
 49      -0.000138200315
 50       0.000143590847
 51       0.000030948205
 52       0.000036822155
 53      -0.000038192876
 54      -0.000008250394
 55      -0.000000037065
 56      -0.000000067575
 57       0.000000056489
 58      -0.000000108871
 59      -0.000000099352
 60      -0.000000223519
 61      -0.000001445427
 62       0.000000414040
 63      -0.000002383748
 64      -0.000001425602
 65       0.000000870381
 66       0.000004126512
 67      -0.000000868638
 68       0.000007991118
 69       0.000004616538
 70      -0.000002068643
 71      -0.000009987349
 72       0.000002342919
 73      -0.000018799053
 74      -0.000011008299
 75       0.000004337706
 76       0.000021020791
 77      -0.000004958977
 78       0.000039463244
 79       0.000023129165
 80      -0.000007416206
 81      -0.000036108320
 82       0.000008788179
 83      -0.000067590936
 84      -0.000039609858
 85       0.000006751417
 86       0.000027946477
 87      -0.000009513425
 88       0.000053496571
 89       0.000031848416
 90      -0.000000101107
 91      -0.000000360085
 92       0.000000351157
 93      -0.000000392701
 94      -0.000000388900
 95      -0.000000541566
 96      -0.000002236319
 97       0.000000586813
 98      -0.000004390509
 99      -0.000002589109
100       0.000000591830
101      -0.000002992817
102       0.000001442773
103       0.000001815849
104      -0.000000089688
105       0.000000396892
106       0.000001252128
107      -0.000005266986
108       0.000022113314
109      -0.000010900282
110      -0.000016442479
111      -0.000000967237
112      -0.000003751022
113      -0.000009912403
114       0.000005187834
115      -0.000022750074
116       0.000012899654
117       0.000012661630
118       0.000001329685
119       0.000006617252
120       0.000013345089
121       0.000000185334
122      -0.000000264911
123       0.000000442784
124      -0.000003255225
125      -0.000006856204
126      -0.000005386057
127       0.000004803892
128      -0.000006288762
129       0.000000950522
130       0.000000913544
131       0.000001125434
132      -0.000005417034
133      -0.000005959747
134      -0.000006939713
135      -0.000006537511
136      -0.000010412019
137      -0.000010614666
138      -0.000001544067
139      -0.000006651833
140      -0.000005640875
141      -0.000000831691
142      -0.000002439717
143      -0.000002270484
144      -0.000000289168
145      -0.000002615033
146       0.000003510791
147       0.000010616589
148       0.000012718402
149      -0.000001196512
150       0.000011091001
151      -0.000002273212
152       0.000004506938
153       0.000003160106
154       0.000001550625
155       0.000008212138
156       0.000002679346
157      -0.000004402684
158      -0.000000599086
159       0.000000855861
160      -0.000001428698
161       0.000010457671
162       0.000021889846
163       0.000016939509
164      -0.000013561760
165       0.000040100169
166      -0.000002638048
167       0.000004818529
168       0.000001151109
169       0.000015974432
170      -0.000028920674
171      -0.000006904866
172       0.000022993724
173      -0.000040146718
174      -0.000009527349
175       0.000013807193
176      -0.000031970608
177      -0.000008920060
178      -0.000005780691
179      -0.000002754867
180       0.000003821225
181      -0.000006353913
182      -0.000010235619
183       0.000027129572
184       0.000011962248
185      -0.000018023485
186       0.000028211623
187       0.000046513882
188      -0.000009254636
189       0.000006965788
190      -0.000013209214
191      -0.000006948908
192      -0.000010441479
193      -0.000023852911
194       0.000002961416
195       0.000000491652
196      -0.000000702574
197       0.000001173597
198      -0.000008610301
199      -0.000018083985
200      -0.000014119609
201       0.000011580640
202      -0.000028270498
203      -0.000004393912
204       0.000000687097
205      -0.000000849097
206       0.000026729855
207      -0.000004480665
208       0.000005028137
209       0.000038567439
210      -0.000007965610
211       0.000006555317
212       0.000026105767
213      -0.000000868402
214       0.000006406180
215       0.000004474725
216      -0.000003203211
217       0.000000986798
218      -0.000009143443
219       0.000003148188
220      -0.000022423409
221       0.000014869076
222      -0.000004010063
223       0.000042198112
224      -0.000016052323
225       0.000007140442
226       0.000011956686
227      -0.000001328075
228      -0.000009660710
229       0.000002681281
230       0.000018384905
231      -0.000006656392
 Sym=     1a
 Ene= -2.66629613880327E+02
 Spin= Alpha
 Occup= 1.000000
  1      -0.000000031020
  2      -0.000000042674
  3      -0.000000058863
  4      -0.000000187180
  5      -0.000000108091
  6      -0.000000318633
  7       0.000001115082
  8      -0.000000295749
  9       0.000001417698
 10      -0.000003145010
 11       0.000005518797
 12      -0.000008858962
 13       0.000014004634
 14      -0.000019346168
 15       0.000015089204
 16      -0.000000569863
 17      -0.000003098605
 18       0.000001166578
 19      -0.229456401618
 20      -0.177895226727
 21      -0.201183485103
 22      -0.311518416565
 23      -0.241517059753
 24      -0.273134068443
 25      -0.198622661127
 26      -0.153990136365
 27      -0.174148989659
 28      -0.010620027709
 29      -0.008233523062
 30      -0.009311404955
 31      -0.003600577414
 32      -0.002791624761
 33      -0.003157011405
 34       0.002492504708
 35       0.001932651284
 36       0.002185527821
 37      -0.001519257671
 38      -0.001178284614
 39      -0.001332318522
 40       0.000967785763
 41       0.000750977425
 42       0.000848978657
 43      -0.000633266724
 44      -0.000491292725
 45      -0.000555358781
 46       0.000366540223
 47       0.000282992546
 48       0.000319953614
 49      -0.000131473746
 50      -0.000102164369
 51      -0.000115553566
 52       0.000035920148
 53       0.000027863338
 54       0.000031567625
 55      -0.000000033818
 56      -0.000000046108
 57      -0.000000114241
 58       0.000000081529
 59      -0.000000092886
 60       0.000001319027
 61       0.000000750480
 62       0.000001870861
 63      -0.000001739448
 64       0.000002321118
 65      -0.000004681334
 66      -0.000002638173
 67      -0.000005879836
 68       0.000005266370
 69      -0.000006695552
 70       0.000010817530
 71       0.000006039866
 72       0.000013681839
 73      -0.000012387360
 74       0.000015918028
 75      -0.000022689991
 76      -0.000012675156
 77      -0.000028714117
 78       0.000025993672
 79      -0.000033406816
 80       0.000039116534
 81       0.000021761007
 82       0.000049529807
 83      -0.000044973758
 84       0.000057712393
 85      -0.000032071135
 86      -0.000016083822
 87      -0.000038109340
 88       0.000036561077
 89      -0.000046576775
 90      -0.000000491904
 91      -0.000000385736
 92      -0.000000570558
 93       0.000000237426
 94       0.000000021522
 95       0.000002615916
 96       0.000001387859
 97       0.000003120047
 98      -0.000002871025
 99       0.000003643045
100      -0.000001629178
101      -0.000000009474
102       0.000001782846
103      -0.000000952810
104       0.000001970956
105      -0.000000895910
106       0.000001090309
107       0.000016887591
108       0.000000041105
109      -0.000013458593
110       0.000005685190
111      -0.000016086435
112       0.000008012519
113      -0.000008062123
114      -0.000016411732
115      -0.000002104015
116       0.000014117151
117      -0.000007987519
118       0.000014388197
119      -0.000008861014
120       0.000012245055
121      -0.000000649968
122       0.000000929174
123      -0.000001553313
124       0.000011430028
125       0.000024119188
126       0.000019118691
127      -0.000014333134
128       0.000038635282
129      -0.000002216123
130      -0.000003743713
131      -0.000003779478
132       0.000013765731
133       0.000022920455
134       0.000023179691
135       0.000020602684
136       0.000033210473
137       0.000033591761
138       0.000016123541
139       0.000020006281
140       0.000021581234
141       0.000002320904
142       0.000005863728
143       0.000010378842
144      -0.000003647716
145       0.000006283410
146      -0.000010588533
147      -0.000029444768
148      -0.000049980976
149       0.000016563780
150      -0.000030432566
151       0.000008871536
152      -0.000008849313
153      -0.000015399048
154       0.000011676486
155      -0.000020921818
156      -0.000011177395
157       0.000000070622
158       0.000000151295
159      -0.000000216179
160       0.000000360948
161      -0.000002644964
162      -0.000005548105
163      -0.000004333476
164       0.000003047608
165      -0.000010833574
166       0.000000786660
167      -0.000001140504
168      -0.000000201470
169      -0.000004334050
170       0.000006983215
171       0.000001465533
172      -0.000003876934
173       0.000010455199
174       0.000003472048
175      -0.000007122369
176       0.000006881289
177       0.000000699227
178       0.000002043656
179       0.000000833519
180      -0.000000588854
181       0.000001063583
182       0.000002623065
183      -0.000008070782
184      -0.000003475902
185       0.000004196630
186      -0.000006584169
187      -0.000010845364
188       0.000000972466
189      -0.000003787079
190       0.000004549749
191      -0.000001359148
192       0.000001403242
193       0.000006844972
194       0.000004696178
195       0.000000422514
196      -0.000000603885
197       0.000001008999
198      -0.000007412128
199      -0.000015605837
200      -0.000012319440
201       0.000008440808
202      -0.000031023154
203      -0.000003633701
204       0.000000845438
205      -0.000000540209