[Molden Format]
[Title]
 Molden file created by orca_2mkl for BaseName=/home/nikolayandreadi_2125/_scratch/F2_cc/La_F2_cc

[Atoms] AU
La   1  57         -0.3746608828        -0.4856161527        -1.5945924858 
F    2   9         -1.8855196035         2.9900437418        -0.5824797349 
F    3   9          3.4351195998        -0.8428159660        -0.7009145409 
[GTO]
  1 0
s   6 1.0 
   896770.4166840001      1651.3879225806
   398564.6296370000      -424.3379156277
   177139.8353940000       981.7209992710
    78728.8157310000       254.1508058902
    34990.5847690000       631.3809010161
    15551.3710090000       510.6983858205
s   1 1.0 
     6911.7204480000       540.2561451421
s   1 1.0 
     3071.8757550000       294.0781969131
s   1 1.0 
     1365.2781130000       160.0758948406
s   1 1.0 
      606.7902730000        87.1342806107
s   1 1.0 
      269.6845660000        47.4298948295
s   1 1.0 
      119.8598070000        25.8175646234
s   1 1.0 
       53.2710250000        14.0533020960
s   1 1.0 
       23.6760110000         7.6496487145
s   1 1.0 
       10.5226720000         4.1639414790
s   1 1.0 
        4.6767430000         2.2665626135
s   1 1.0 
        2.0785520000         1.2337602184
s   1 1.0 
        0.9238010000         0.6715740606
s   1 1.0 
        0.4105780000         0.3655584678
s   1 1.0 
        0.1824790000         0.1989847352
s   1 1.0 
        0.0811020000         0.1083137932
s   1 1.0 
        0.0360450000         0.0589581523
s   1 1.0 
        0.0160200000         0.0320927532
p   5 1.0 
    11986.2753990000      1952.3955328819
     4794.5101600000       868.3218153489
     1917.8040640000      1380.7954515787
      767.1216260000      1418.4854178134
      306.8486500000      1371.3064850729
p   1 1.0 
      122.7394600000       582.3315874344
p   1 1.0 
       49.0957840000       185.2445063692
p   1 1.0 
       19.6383140000        58.9278149325
p   1 1.0 
        7.8553250000        18.7454247406
p   1 1.0 
        3.1421300000         5.9630750378
p   1 1.0 
        1.2568520000         1.8969036124
p   1 1.0 
        0.5027410000         0.6034210674
p   1 1.0 
        0.2010960000         0.1919527675
p   1 1.0 
        0.0804390000         0.0610623363
p   1 1.0 
        0.0321750000         0.0194239827
p   1 1.0 
        0.0128700000         0.0061789299
d   4 1.0 
      797.4623660000      2851.7582730738
      289.9863150000      2782.3795269653
      105.4495690000      2564.2627723646
       38.3452980000      1335.5791852544
d   1 1.0 
       13.9437450000       286.8362852208
d   1 1.0 
        5.0704530000        48.8429533307
d   1 1.0 
        1.8438010000         8.3170567414
d   1 1.0 
        0.6704730000         1.4162416004
d   1 1.0 
        0.2438080000         0.2411592915
d   1 1.0 
        0.0886580000         0.0410654382
d   1 1.0 
        0.0322390000         0.0069925860
d   1 1.0 
        0.0117230000         0.0011906604
f   4 1.0 
        9.8326290000       117.1346343507
        3.2775430000        21.9421048206
        1.0925140000         1.8043818570
        0.3641710000         0.4166094652
f   1 1.0 
        0.1213900000        -0.0495920008
f   1 1.0 
        0.0404630000         0.0041867859

  2 0
s   6 1.0 
    35479.1004410000         1.9229128581
     5318.4728983000         2.2734773358
     1210.4810975000         3.4747482552
      342.8551814000         5.2879612972
      112.0194318100         7.1666332516
       40.7147402500         7.7556346254
s   1 1.0 
       16.0396781100         5.7122450312
s   1 1.0 
        6.5038186700         2.9025947842
s   1 1.0 
        1.5440477500         0.9872011154
s   1 1.0 
        0.6122345300        -0.4932856223
s   1 1.0 
        0.2402798000         0.2445952611
p   4 1.0 
       80.2339004800         4.2755032106
       18.5940107400         4.7314752302
        5.6867902700         4.0864798013
        1.9511006300         2.2989954518
p   1 1.0 
        0.6697021100         0.8635593126
p   1 1.0 
        0.2165130000         0.2105208234
d   1 1.0 
        3.1070000000        20.7284714039
d   1 1.0 
        0.8550000000         2.1672588463
f   1 1.0 
        1.9170000000        24.6547062912

  3 0
s   6 1.0 
    35479.1004410000         1.9229128581
     5318.4728983000         2.2734773358
     1210.4810975000         3.4747482552
      342.8551814000         5.2879612972
      112.0194318100         7.1666332516
       40.7147402500         7.7556346254
s   1 1.0 
       16.0396781100         5.7122450312
s   1 1.0 
        6.5038186700         2.9025947842
s   1 1.0 
        1.5440477500         0.9872011154
s   1 1.0 
        0.6122345300        -0.4932856223
s   1 1.0 
        0.2402798000         0.2445952611
p   4 1.0 
       80.2339004800         4.2755032106
       18.5940107400         4.7314752302
        5.6867902700         4.0864798013
        1.9511006300         2.2989954518
p   1 1.0 
        0.6697021100         0.8635593126
p   1 1.0 
        0.2165130000         0.2105208234
d   1 1.0 
        3.1070000000        20.7284714039
d   1 1.0 
        0.8550000000         2.1672588463
f   1 1.0 
        1.9170000000        24.6547062912

[5D]
[7F]
[9G]
[MO]
 Sym=     1a
 Ene= -1.43620505686550E+03
 Spin= Alpha
 Occup= 1.000000
  1      -0.076248327148
  2      -0.090372797730
  3      -0.168563957360
  4      -0.298348251948
  5      -0.349937086402
  6      -0.180042468601
  7      -0.011724483170
  8      -0.003057304412
  9       0.002216151940
 10      -0.001452836140
 11       0.000981866211
 12      -0.000657302827
 13       0.000430648961
 14      -0.000278927325
 15       0.000173421363
 16      -0.000095480626
 17       0.000042225287
 18      -0.000011504846
 19       0.000000016825
 20       0.000000024333
 21       0.000000014568
 22      -0.000000220966
 23      -0.000000305446
 24      -0.000000185520
 25       0.000000101348
 26       0.000000140674
 27       0.000000085328
 28      -0.000000170502
 29      -0.000000234938
 30      -0.000000142843
 31       0.000000256951
 32       0.000000353246
 33       0.000000214935
 34      -0.000000402200
 35      -0.000000551834
 36      -0.000000335985
 37       0.000000704316
 38       0.000000962598
 39       0.000000586825
 40      -0.000001190431
 41      -0.000001618673
 42      -0.000000988445
 43       0.000001472960
 44       0.000001996317
 45       0.000001220362
 46      -0.000000646975
 47      -0.000000840520
 48      -0.000000521134
 49      -0.000000081686
 50      -0.000000128042
 51      -0.000000074782
 52       0.000000038860
 53       0.000000057899
 54       0.000000034340
 55      -0.000000012335
 56       0.000000005466
 57       0.000000008481
 58       0.000000001968
 59      -0.000000005515
 60      -0.000000065509
 61       0.000000018445
 62       0.000000030988
 63       0.000000018956
 64      -0.000000055014
 65       0.000000204528
 66      -0.000000054604
 67      -0.000000093000
 68      -0.000000061252
 69       0.000000178852
 70      -0.000000405228
 71       0.000000102205
 72       0.000000176206
 73       0.000000126334
 74      -0.000000368978
 75       0.000000817969
 76      -0.000000202846
 77      -0.000000349849
 78      -0.000000259684
 79       0.000000754126
 80      -0.000001340260
 81       0.000000333244
 82       0.000000573691
 83       0.000000425879
 84      -0.000001234050
 85       0.000000706191
 86      -0.000000168076
 87      -0.000000283079
 88      -0.000000244570
 89       0.000000675384
 90       0.000000079899
 91      -0.000000019682
 92      -0.000000038180
 93      -0.000000019065
 94       0.000000070857
 95      -0.000000037522
 96       0.000000009161
 97       0.000000017211
 98       0.000000009953
 99      -0.000000033931
100      -0.000000217435
101      -0.000000095384
102      -0.000000106463
103       0.000000032782
104      -0.000000141742
105      -0.000000460822
106       0.000000147537
107       0.000000070860
108       0.000000026609
109       0.000000034159
110      -0.000000004393
111       0.000000037585
112       0.000000134295
113      -0.000000043668
114       0.000000258116
115       0.000000111649
116       0.000000127504
117      -0.000000036952
118       0.000000169304
119       0.000000547307
120      -0.000000175475
121       0.000000001238
122       0.000000007539
123      -0.000000058587
124       0.000000772368
125       0.000002200389
126       0.000001488738
127      -0.000000007797
128      -0.000000022593
129      -0.000000011389
130      -0.000000485558
131       0.000001237925
132       0.000000374834
133      -0.000000302987
134       0.000000537521
135       0.000000137599
136       0.000000097028
137       0.000000041736
138      -0.000000087370
139       0.000000120461
140       0.000000149791
141      -0.000000008718
142      -0.000000003562
143      -0.000000014686
144       0.000000023934
145      -0.000000030034
146       0.000000155660
147      -0.000000073313
148       0.000000166757
149       0.000000140516
150       0.000000157912
151       0.000000312524
152      -0.000000102661
153      -0.000000000640
154       0.000000016066
155      -0.000000074091
156       0.000000804007
157       0.000002227790
158       0.000001525017
159      -0.000000030206
160      -0.000000013083
161      -0.000000013609
162       0.000001357590
163      -0.000000079885
164       0.000000337884
165       0.000000589258
166      -0.000000117182
167       0.000000112840
168       0.000000097875
169      -0.000000080581
170       0.000000010476
171      -0.000000180565
172       0.000000048378
173       0.000000004147
174      -0.000000025104
175      -0.000000005328
176      -0.000000025504
177      -0.000000033457
178       0.000000137142
179       0.000000197665
180      -0.000000019492
181      -0.000000179868
182       0.000000038713
183       0.000000313193
184      -0.000000098189
 Sym=     1a
 Ene= -2.32723281116591E+02
 Spin= Alpha
 Occup= 1.000000
  1      -0.027611897609
  2      -0.035819490435
  3      -0.068059283045
  4      -0.142039825460
  5      -0.207613753251
  6      -0.104970815158
  7       0.438707140267
  8       0.623292443891
  9       0.118994454428
 10       0.003446530465
 11      -0.002700082167
 12       0.001934447140
 13      -0.001444351103
 14       0.000983569456
 15      -0.000617725213
 16       0.000344034300
 17      -0.000152616530
 18       0.000041632152
 19       0.000016200247
 20       0.000022333997
 21       0.000013576854
 22       0.000023308606
 23       0.000032120192
 24       0.000019528566
 25       0.000019565090
 26       0.000026946399
 27       0.000016385969
 28       0.000001371215
 29       0.000001901617
 30       0.000001153771
 31       0.000000513643
 32       0.000000701377
 33       0.000000427702
 34       0.000001078884
 35       0.000001477525
 36       0.000000900139
 37      -0.000002191208
 38      -0.000002988152
 39      -0.000001822974
 40       0.000003933235
 41       0.000005339848
 42       0.000003262454
 43      -0.000005216697
 44      -0.000007063778
 45      -0.000004319439
 46       0.000002511529
 47       0.000003278522
 48       0.000002029438
 49       0.000000227458
 50       0.000000368980
 51       0.000000213332
 52      -0.000000121205
 53      -0.000000182645
 54      -0.000000107951
 55       0.000002216066
 56      -0.000000528870
 57      -0.000000918667
 58      -0.000000722736
 59       0.000002094634
 60      -0.000000242393
 61       0.000000094903
 62       0.000000146135
 63       0.000000054718
 64      -0.000000141698
 65       0.000000456597
 66      -0.000000179627
 67      -0.000000280889
 68      -0.000000095534
 69       0.000000261489
 70       0.000000953255
 71      -0.000000197524
 72      -0.000000359468
 73      -0.000000328704
 74       0.000000970814
 75      -0.000002743140
 76       0.000000684221
 77       0.000001177753
 78       0.000000868856
 79      -0.000002519980
 80       0.000004753641
 81      -0.000001184004
 82      -0.000002036514
 83      -0.000001510368
 84       0.000004372681
 85      -0.000002691424
 86       0.000000632442
 87       0.000001072059
 88       0.000000932532
 89      -0.000002590789
 90      -0.000000225002
 91       0.000000056032
 92       0.000000111046
 93       0.000000049029
 94      -0.000000196032
 95       0.000000116326
 96      -0.000000028706
 97      -0.000000054265
 98      -0.000000029844
 99       0.000000104078
100       0.000000737404
101       0.000000325537
102       0.000000362720
103      -0.000000114098
104       0.000000489169
105       0.000001576402
106      -0.000000504753
107      -0.000000259297
108      -0.000000094099
109      -0.000000120639
110       0.000000011242
111      -0.000000118673
112      -0.000000462197
113       0.000000150118
114      -0.000000937530
115      -0.000000404377
116      -0.000000461808
117       0.000000132513
118      -0.000000609009
119      -0.000001978612
120       0.000000634327
121       0.000000019858
122      -0.000000095719
123       0.000000368184
124      -0.000003128622
125      -0.000008348775
126      -0.000006054081
127      -0.000000010907
128       0.000000176799
129       0.000000069488
130       0.000001776248
131      -0.000004516648
132      -0.000001366335
133       0.000000980016
134      -0.000001651274
135      -0.000000409266
136      -0.000000324866
137      -0.000000139541
138       0.000000291245
139      -0.000000401111
140      -0.000000502205
141      -0.000000012506
142      -0.000000008121
143       0.000000094661
144      -0.000000146674
145       0.000000039088
146      -0.000000524066
147       0.000000247168
148      -0.000000561839
149      -0.000000472838
150      -0.000000532125
151      -0.000001053154
152       0.000000345094
153       0.000000024956
154      -0.000000122370
155       0.000000419452
156      -0.000003236278
157      -0.000008438337
158      -0.000006172335
159       0.000000212273
160       0.000000039702
161       0.000000074224
162      -0.000004952605
163       0.000000295564
164      -0.000001230936
165      -0.000001818180
166       0.000000405135
167      -0.000000330316
168      -0.000000326457
169       0.000000267453
170      -0.000000035086
171       0.000000600863
172      -0.000000163367
173      -0.000000061325
174       0.000000131252
175       0.000000012806
176       0.000000182869
177       0.000000100311
178      -0.000000461178
179      -0.000000665297
180       0.000000065778
181       0.000000604942
182      -0.000000130674
183      -0.000001053774
184       0.000000331258
 Sym=     1a
 Ene= -2.08649535384420E+02
 Spin= Alpha
 Occup= 1.000000
  1      -0.000000000004
  2      -0.000000000005
  3      -0.000000000009
  4      -0.000000000019
  5      -0.000000000030
  6      -0.000000000010
  7       0.000000000057
  8       0.000000000085
  9       0.000000000006
 10       0.000000000026
 11      -0.000000000051
 12       0.000000000076
 13      -0.000000000120
 14       0.000000000163
 15      -0.000000000036
 16      -0.000000000258
 17       0.000000000118
 18      -0.000000000028
 19       0.084808703154
 20       0.127327103278
 21      -0.310650756078
 22       0.117332331512
 23       0.176156282749
 24      -0.429783455483
 25       0.076139583463
 26       0.114311765732
 27      -0.278896130827
 28       0.004662940170
 29       0.007000680870
 30      -0.017080156117
 31       0.001311668726
 32       0.001969266965
 33      -0.004804588037
 34      -0.000905223598
 35      -0.001359052683
 36       0.003315796417
 37       0.000535417384
 38       0.000803846026
 39      -0.001961211607
 40      -0.000321389455
 41      -0.000482516255
 42       0.001177236167
 43       0.000187236401
 44       0.000281106223
 45      -0.000685839076
 46      -0.000103427873
 47      -0.000155280989
 48       0.000378851996
 49       0.000049439109
 50       0.000074225209
 51      -0.000181093412
 52      -0.000015708795
 53      -0.000023584335
 54       0.000057540665
 55      -0.000007889838
 56      -0.000004198979
 57      -0.000005621508
 58      -0.000001583513
 59       0.000004275160
 60       0.000000887190
 61       0.000000471998
 62       0.000000632233
 63       0.000000178153
 64      -0.000000480690
 65       0.000000066783
 66       0.000000037706
 67       0.000000046146
 68       0.000000012220
 69      -0.000000036686
 70      -0.000000833301
 71      -0.000000446699
 72      -0.000000591600
 73      -0.000000165485
 74       0.000000452280
 75       0.000001734677
 76       0.000000925911
 77       0.000001234185
 78       0.000000346660
 79      -0.000000940605
 80      -0.000002746905
 81      -0.000001461229
 82      -0.000001957698
 83      -0.000000551655
 84       0.000001488357
 85       0.000001878744
 86       0.000001013852
 87       0.000001329237
 88       0.000000369435
 89      -0.000001021138
 90       0.000000003096
 91       0.000000005767
 92      -0.000000000507
 93      -0.000000001632
 94      -0.000000002648
 95      -0.000000031073
 96      -0.000000018177
 97      -0.000000021057
 98      -0.000000005339
 99       0.000000017221
100       0.000000767919
101      -0.000000353314
102      -0.000000598223
103      -0.000000275600
104       0.000000754765
105      -0.000000370208
106       0.000000101604
107      -0.000000347791
108       0.000000145805
109       0.000000264984
110       0.000000118859
111      -0.000000349166
112       0.000000171359
113      -0.000000053461
114      -0.000001016287
115       0.000000469089
116       0.000000778853
117       0.000000373584
118      -0.000000998921
119       0.000000495038
120      -0.000000128846
121      -0.000000000001
122       0.000000000007
123      -0.000000000012
124       0.000000000015
125       0.000000000041
126       0.000000000206
127       0.000000596399
128       0.000000895402
129      -0.000002184586
130      -0.000001978502
131      -0.000002970471
132       0.000007247217
133       0.000001356768
134       0.000002036794
135      -0.000004969649
136       0.000001149969
137      -0.000001154230
138       0.000001995793
139       0.000001195182
140      -0.000000220356
141      -0.000004044732
142       0.000004077801
143      -0.000007031731
144      -0.000004213643
145       0.000000770904
146      -0.000000588755
147      -0.000000290809
148       0.000000918322
149      -0.000000446672
150      -0.000000826472
151       0.000000149215
152      -0.000000621697
153      -0.000000000000
154       0.000000000002
155      -0.000000000004
156       0.000000000007
157       0.000000000013
158       0.000000000056
159       0.000000596490
160       0.000000895538
161      -0.000002184921
162      -0.000001967267
163      -0.000002953539
164       0.000007206002
165       0.000001364913
166       0.000002049236
167      -0.000004999727
168       0.000001022045
169       0.000002333309
170      -0.000000463640
171      -0.000000771882
172      -0.000000961840
173      -0.000003572646
174      -0.000008176795
175       0.000001634357
176       0.000002709386
177       0.000003366871
178      -0.000000668466
179       0.000000882667
180       0.000000036372
181       0.000000921979
182      -0.000000404129
183       0.000000465714
184       0.000000473259
 Sym=     1a
 Ene= -2.08649431252141E+02
 Spin= Alpha
 Occup= 1.000000
  1      -0.000002786295
  2      -0.000003590321
  3      -0.000006989000
  4      -0.000014071358
  5      -0.000022149744
  6      -0.000007784429
  7       0.000044236611
  8       0.000062731618
  9       0.000003807185
 10       0.000018468771
 11      -0.000034458113
 12       0.000051175450
 13      -0.000079510203
 14       0.000108051792
 15      -0.000024439596
 16      -0.000169103611
 17       0.000077706139
 18      -0.000018240031
 19      -0.183816792620
 20      -0.250509987745
 21      -0.152859679088
 22      -0.254308032077
 23      -0.346577158299
 24      -0.211479285809
 25      -0.165025809535
 26      -0.224901200526
 27      -0.137233347889
 28      -0.010104569153
 29      -0.013770714557
 30      -0.008402814243
 31      -0.002846314991
 32      -0.003879087009
 33      -0.002366983453
 34       0.001968740626
 35       0.002683140855
 36       0.001637217644
 37      -0.001172950143
 38      -0.001598641657
 39      -0.000975458125
 40       0.000719584660
 41       0.000980791005
 42       0.000598448060
 43      -0.000435843414
 44      -0.000594322607
 45      -0.000362583121
 46       0.000200302582
 47       0.000272407643
 48       0.000166335518
 49      -0.000093347374
 50      -0.000126981298
 51      -0.000077530205
 52       0.000030041091
 53       0.000040866070
 54       0.000024951172
 55       0.000004252689
 56      -0.000005683228
 57      -0.000007925569
 58       0.000002308407
 59      -0.000007300064
 60      -0.000000183490
 61       0.000000691168
 62       0.000000929123
 63      -0.000000450251
 64       0.000001395175
 65      -0.000001837310
 66       0.000000273596
 67       0.000000549419
 68       0.000000721430
 69      -0.000002132392
 70       0.000006594312
 71      -0.000001974862
 72      -0.000003282941
 73      -0.000001802869
 74       0.000005245593
 75      -0.000015616533
 76       0.000004826984
 77       0.000007958512
 78       0.000004172577
 79      -0.000012069120
 80       0.000032352918
 81      -0.000009686513
 82      -0.000016129004
 83      -0.000008807950
 84       0.000025722815
 85       0.000021449840
 86      -0.000002974714
 87      -0.000006294020
 88      -0.000008336496
 89       0.000025300146
 90      -0.000012168266
 91       0.000002905093
 92       0.000005125268
 93       0.000003845937
 94      -0.000011439442
 95       0.000003836841
 96      -0.000000941361
 97      -0.000001650445
 98      -0.000001191218
 99       0.000003544900
100       0.000004710992
101       0.000001938042
102       0.000002187370
103      -0.000000521684
104       0.000002495286
105       0.000009066138
106      -0.000002903113
107      -0.000016201210
108      -0.000007194189
109      -0.000008230526
110       0.000002576335
111      -0.000011642290
112      -0.000035920952
113       0.000011554293
114      -0.000007589910
115      -0.000003142159
116      -0.000003582459
117       0.000000884449
118      -0.000004230310
119      -0.000014928812
120       0.000004770656
121      -0.000000562048
122       0.000002834510
123      -0.000005029457
124       0.000006908294
125       0.000017469323
126       0.000085914207
127      -0.000001330176
128      -0.000001667475
129      -0.000001046594
130       0.000010223124
131      -0.000006689793
132       0.000000048966
133       0.000012340995
134      -0.000050250751
135      -0.000017227334
136      -0.000000912448
137      -0.000000168235
138       0.000001887375
139      -0.000002489579
140      -0.000000289557
141      -0.000001214691
142      -0.000001184791
143      -0.000002502471
144       0.000003186428
145      -0.000005515703
146      -0.000001874409
147       0.000000443481
148      -0.000001552731
149      -0.000001998014
150      -0.000001509663
151      -0.000002833555
152       0.000002036329
153      -0.000000539267
154       0.000002715833
155      -0.000004802309
156       0.000006441477
157       0.000016954867
158       0.000084867429
159      -0.000001054131
160      -0.000001784199
161      -0.000001019075
162      -0.000009757857
163       0.000007580606
164       0.000000443148
165      -0.000051740521
166      -0.000003878708
167      -0.000015715136
168      -0.000000924634
169       0.000001707163
170       0.000000395958
171       0.000002111867
172       0.000001273213
173      -0.000001337104
174      -0.000002079804
175      -0.000001713682
176       0.000000957976
177      -0.000006408905
178      -0.000001713131
179      -0.000001790684
180      -0.000000065861
181       0.000002245057
182      -0.000000028982
183      -0.000003481434
184      -0.000000047412
 Sym=     1a
 Ene= -2.08649103772065E+02
 Spin= Alpha
 Occup= 1.000000
  1      -0.000000013030
  2      -0.000000016836
  3      -0.000000032429
  4      -0.000000066275
  5      -0.000000100861
  6      -0.000000043980
  7       0.000000203917
  8       0.000000307654
  9       0.000000023214
 10       0.000000055341
 11      -0.000000089283
 12       0.000000081258
 13      -0.000000009652
 14      -0.000000028816
 15       0.000000204745
 16      -0.000001177762
 17       0.000000443249
 18      -0.000000117291
 19       0.280943077627
 20      -0.202342439045
 21      -0.006236130196
 22       0.388678860911
 23      -0.279936523155
 24      -0.008627554918
 25       0.252225055251
 26      -0.181658993392
 27      -0.005598678068
 28       0.015440396070
 29      -0.011120546203
 30      -0.000342722376
 31       0.004356988671
 32      -0.003138054855
 33      -0.000096728816
 34      -0.003024551582
 35       0.002178422551
 36       0.000067162054
 37       0.001821666570
 38      -0.001312096690
 39      -0.000040470864
 40      -0.001154792967
 41       0.000831838566
 42       0.000025685197
 43       0.000743033631
 44      -0.000535476966
 45      -0.000016626536
 46      -0.000275080782
 47       0.000197647127
 48       0.000005912019
 49       0.000119601629
 50      -0.000085936728
 51      -0.000002571387
 52      -0.000039141858
 53       0.000028128409
 54       0.000000843182
 55      -0.000000149064
 56       0.000004554224
 57      -0.000003543693
 58       0.000011134284
 59       0.000003662418
 60      -0.000000005871
 61       0.000000028492
 62      -0.000000022635
 63       0.000000073662
 64       0.000000014673
 65       0.000000089821
 66      -0.000002158924
 67       0.000001682287
 68      -0.000005294655
 69      -0.000001703757
 70      -0.000000300252
 71       0.000007459047
 72      -0.000005813993
 73       0.000018288864
 74       0.000005901268
 75       0.000000729209
 76      -0.000017905382
 77       0.000013949664
 78      -0.000043897534
 79      -0.000014157499
 80      -0.000001438172
 81       0.000037257890
 82      -0.000029077690
 83       0.000091368088
 84       0.000029547696
 85      -0.000000469355
 86       0.000015992276
 87      -0.000012572977
 88       0.000039260141
 89       0.000012850598
 90       0.000000392215
 91      -0.000011147928
 92       0.000008727339
 93      -0.000027354178
 94      -0.000008881670
 95      -0.000000123659
 96       0.000003541887
 97      -0.000002773508
 98       0.000008691298
 99       0.000002822874
100       0.000000410203
101      -0.000007753780
102       0.000005253078
103       0.000008694327
104       0.000003182776
105      -0.000000084254
106       0.000000500082
107      -0.000001092252
108       0.000018970281
109      -0.000012689013
110      -0.000027640972
111      -0.000009768201
112       0.000002693075
113       0.000006908393
114      -0.000000583745
115       0.000010621208
116      -0.000007208150
117      -0.000012016543
118      -0.000004405238
119       0.000000115492
120      -0.000000545418
121      -0.000000690096
122       0.000003449169
123      -0.000005962415
124       0.000006324200
125       0.000021129142
126       0.000117145147
127       0.000001036377
128       0.000000302881
129       0.000000407080
130       0.000004076314
131      -0.000020000718
132      -0.000007084933
133       0.000040256448
134      -0.000069493784
135      -0.000017493533
136      -0.000001080707
137      -0.000000559567
138       0.000000735631
139      -0.000001094411
140      -0.000001982117
141      -0.000002471692
142      -0.000000741268
143       0.000003986137
144      -0.000005369498
145      -0.000002037010
146      -0.000002268687
147       0.000001302409
148      -0.000002632273
149      -0.000002056110
150      -0.000002451987
151      -0.000004825919
152       0.000001229536
153       0.000000655894
154      -0.000003270637
155       0.000005618963
156      -0.000005598280
157      -0.000020315927
158      -0.000115570779
159      -0.000000188470
160      -0.000001052637
161      -0.000000482900
162       0.000020808412
163       0.000002253949
164       0.000006604607
165       0.000078635128
166      -0.000016565824
167       0.000014677797
168       0.000001041081
169      -0.000000647625
170       0.000000269120
171      -0.000001904367
172       0.000000933732
173       0.000002904345
174      -0.000003982327
175      -0.000000467438
176      -0.000006124247
177      -0.000001434442
178       0.000001955507
179       0.000003141020
180      -0.000000445587
181      -0.000002676779
182       0.000000655878
183       0.000004608302
184      -0.000001821956
 Sym=     1a
 Ene= -5.15047708492157E+01
 Spin= Alpha
 Occup= 1.000000
  1      -0.012598202404
  2      -0.016523894392
  3      -0.031734006179
  4      -0.067193706146
  5      -0.103977042287
  6      -0.051226716206
  7       0.315269109429
  8       0.689781477262
  9      -0.278441130446
 10      -0.958124576076
 11      -0.108632373834
 12      -0.024054905257
 13       0.016497028388
 14      -0.011400329853
 15       0.007423988475
 16      -0.004156770567
 17       0.001853639790
 18      -0.000507283560
 19       0.000065467289
 20       0.000090312981
 21       0.000054889789
 22       0.000101737161
 23       0.000140364510
 24       0.000085306439
 25       0.000024344252
 26       0.000033478929
 27       0.000020368211
 28      -0.000260276584
 29      -0.000358948742
 30      -0.000218180357
 31      -0.000171922035
 32      -0.000237115595
 33      -0.000144122926
 34       0.000007722269
 35       0.000010691830
 36       0.000006490513
 37       0.000014117943
 38       0.000019099807
 39       0.000011682777
 40      -0.000045998928
 41      -0.000062402585
 42      -0.000038135093
 43       0.000062201402
 44       0.000084295996
 45       0.000051531971
 46      -0.000028497053
 47      -0.000037148495
 48      -0.000023006013
 49      -0.000003503583
 50      -0.000005482276
 51      -0.000003203535
 52       0.000001704428
 53       0.000002532964
 54       0.000001503512