[Molden Format]
[Title]
 Molden file created by orca_2mkl for BaseName=/home/nikolayandreadi_2125/_scratch/F2_cc/Lu_F2_cc

[Atoms] AU
Lu   1  71         -0.2679763939        -0.3432989878        -1.5071359603 
F    2   9         -1.8259516564         2.8381815703        -0.6284624409 
F    3   9          3.2688671637        -0.8332690696        -0.7423883603 
[GTO]
  1 0
s   6 1.0 
  1397555.9200170001      2804.5119890306
   621135.9644520000      -768.2142817432
   276060.4286450000      1614.2664970544
   122693.5238420000       325.7081593792
    54530.4550410000       933.9810932816
    24235.7577960000       660.3076369236
s   1 1.0 
    10771.4479090000       753.5562155476
s   1 1.0 
     4787.3101820000       410.1840490352
s   1 1.0 
     2127.6934140000       223.2759157081
s   1 1.0 
      945.6415170000       121.5360144873
s   1 1.0 
      420.2851190000        66.1558268983
s   1 1.0 
      186.7933860000        36.0106709485
s   1 1.0 
       83.0192830000        19.6017265299
s   1 1.0 
       36.8974590000        10.6698284372
s   1 1.0 
       16.3988710000         5.8079190473
s   1 1.0 
        7.2883870000         3.1614306601
s   1 1.0 
        3.2392830000         1.7208648389
s   1 1.0 
        1.4396810000         0.9367200088
s   1 1.0 
        0.6398580000         0.5098856569
s   1 1.0 
        0.2843820000         0.2775470850
s   1 1.0 
        0.1263920000         0.1510774973
s   1 1.0 
        0.0561740000         0.0822359293
s   1 1.0 
        0.0249660000         0.0447632713
p   5 1.0 
    19323.3677850000      4822.9024605813
     7729.3471140000      1785.4667582687
     3091.7388460000      2818.2407679143
     1236.6955380000      2630.9996712709
      494.6782150000      2452.2890501058
p   1 1.0 
      197.8712860000      1057.8365251009
p   1 1.0 
       79.1485140000       336.5065675676
p   1 1.0 
       31.6594060000       107.0455309803
p   1 1.0 
       12.6637620000        34.0520696291
p   1 1.0 
        5.0655050000        10.8322462266
p   1 1.0 
        2.0262020000         3.4458273403
p   1 1.0 
        0.8104810000         1.0961465862
p   1 1.0 
        0.3241920000         0.3486927800
p   1 1.0 
        0.1296770000         0.1109222783
p   1 1.0 
        0.0518710000         0.0352854665
p   1 1.0 
        0.0207480000         0.0112243290
d   4 1.0 
     1430.5278870000      7824.3378881590
      520.1919590000      7307.3728048244
      189.1607120000      6842.4164092826
       68.7857140000      3759.1188941727
d   1 1.0 
       25.0129870000       797.5534701543
d   1 1.0 
        9.0956320000       135.8087103594
d   1 1.0 
        3.3075020000        23.1257212041
d   1 1.0 
        1.2027280000         3.9378853841
d   1 1.0 
        0.4373560000         0.6705504976
d   1 1.0 
        0.1590380000         0.1141817430
d   1 1.0 
        0.0578320000         0.0194430527
d   1 1.0 
        0.0210300000         0.0033108447
f   4 1.0 
       46.7781990000      3161.2713943715
       15.5927330000       939.9878603884
        5.1975780000       122.7894475198
        1.7325260000         7.1830685073
f   1 1.0 
        0.5775090000         1.6577051316
f   1 1.0 
        0.1925030000         0.1399537239

  2 0
s   6 1.0 
    35479.1004410000         1.9229128581
     5318.4728983000         2.2734773358
     1210.4810975000         3.4747482552
      342.8551814000         5.2879612972
      112.0194318100         7.1666332516
       40.7147402500         7.7556346254
s   1 1.0 
       16.0396781100         5.7122450312
s   1 1.0 
        6.5038186700         2.9025947842
s   1 1.0 
        1.5440477500         0.9872011154
s   1 1.0 
        0.6122345300        -0.4932856223
s   1 1.0 
        0.2402798000         0.2445952611
p   4 1.0 
       80.2339004800         4.2755032106
       18.5940107400         4.7314752302
        5.6867902700         4.0864798013
        1.9511006300         2.2989954518
p   1 1.0 
        0.6697021100         0.8635593126
p   1 1.0 
        0.2165130000         0.2105208234
d   1 1.0 
        3.1070000000        20.7284714039
d   1 1.0 
        0.8550000000         2.1672588463
f   1 1.0 
        1.9170000000        24.6547062912

  3 0
s   6 1.0 
    35479.1004410000         1.9229128581
     5318.4728983000         2.2734773358
     1210.4810975000         3.4747482552
      342.8551814000         5.2879612972
      112.0194318100         7.1666332516
       40.7147402500         7.7556346254
s   1 1.0 
       16.0396781100         5.7122450312
s   1 1.0 
        6.5038186700         2.9025947842
s   1 1.0 
        1.5440477500         0.9872011154
s   1 1.0 
        0.6122345300        -0.4932856223
s   1 1.0 
        0.2402798000         0.2445952611
p   4 1.0 
       80.2339004800         4.2755032106
       18.5940107400         4.7314752302
        5.6867902700         4.0864798013
        1.9511006300         2.2989954518
p   1 1.0 
        0.6697021100         0.8635593126
p   1 1.0 
        0.2165130000         0.2105208234
d   1 1.0 
        3.1070000000        20.7284714039
d   1 1.0 
        0.8550000000         2.1672588463
f   1 1.0 
        1.9170000000        24.6547062912

[5D]
[7F]
[9G]
[MO]
 Sym=     1a
 Ene= -2.33436472420213E+03
 Spin= Alpha
 Occup= 1.000000
  1      -0.099534872276
  2      -0.106648266498
  3      -0.179819799266
  4      -0.301237553779
  5      -0.330325688535
  6      -0.163843367304
  7      -0.008517416736
  8      -0.003467945086
  9       0.002521462638
 10      -0.001672519528
 11       0.001122109101
 12      -0.000750912240
 13       0.000497357995
 14      -0.000330186748
 15       0.000221961725
 16      -0.000142048928
 17       0.000051847195
 18      -0.000012984587
 19       0.000000031869
 20       0.000000044212
 21       0.000000026822
 22      -0.000000088848
 23      -0.000000121803
 24      -0.000000074180
 25       0.000000103509
 26       0.000000141419
 27       0.000000086223
 28      -0.000000212811
 29      -0.000000290051
 30      -0.000000176983
 31       0.000000381690
 32       0.000000519898
 33       0.000000317296
 34      -0.000000658522
 35      -0.000000896925
 36      -0.000000547406
 37       0.000001168856
 38       0.000001592739
 39       0.000000971926
 40      -0.000002035437
 41      -0.000002775868
 42      -0.000001693441
 43       0.000003417629
 44       0.000004661548
 45       0.000002843677
 46      -0.000007637300
 47      -0.000010446028
 48      -0.000006366576
 49       0.000001423923
 50       0.000001949626
 51       0.000001187839
 52      -0.000000207377
 53      -0.000000285235
 54      -0.000000173525
 55       0.000000012246
 56      -0.000000001044
 57      -0.000000002647
 58      -0.000000005404
 59       0.000000016091
 60      -0.000000149668
 61       0.000000031145
 62       0.000000056401
 63       0.000000051829
 64      -0.000000152263
 65       0.000000359215
 66      -0.000000074154
 67      -0.000000134603
 68      -0.000000124830
 69       0.000000366872
 70      -0.000000746418
 71       0.000000149602
 72       0.000000273885
 73       0.000000262767
 74      -0.000000773118
 75       0.000001462992
 76      -0.000000288611
 77      -0.000000531047
 78      -0.000000518197
 79       0.000001526271
 80      -0.000002535309
 81       0.000000485285
 82       0.000000900795
 83       0.000000909575
 84      -0.000002680915
 85       0.000007024647
 86      -0.000001334684
 87      -0.000002485668
 88      -0.000002523598
 89       0.000007449944
 90      -0.000000715692
 91       0.000000175330
 92       0.000000305073
 93       0.000000226145
 94      -0.000000663700
 95      -0.000000003744
 96      -0.000000005862
 97      -0.000000007664
 98       0.000000007026
 99      -0.000000020142
100       0.000000120996
101       0.000000054976
102       0.000000062676
103      -0.000000021314
104       0.000000092593
105       0.000000277463
106      -0.000000088899
107      -0.000000662661
108      -0.000000302979
109      -0.000000345509
110       0.000000119521
111      -0.000000517160
112      -0.000001535301
113       0.000000492021
114       0.000002021054
115       0.000000931152
116       0.000001060343
117      -0.000000374643
118       0.000001609150
119       0.000004733071
120      -0.000001517182
121      -0.000000150801
122       0.000000693009
123      -0.000001312218
124       0.000003700359
125       0.000006846921
126       0.000015821289
127       0.000000319675
128      -0.000000613975
129      -0.000000164380
130      -0.000001152410
131       0.000002241713
132       0.000000604208
133       0.000003058782
134      -0.000006946591
135      -0.000002012169
136      -0.000000153756
137      -0.000000037153
138       0.000000111994
139      -0.000000114679
140      -0.000000215462
141       0.000000790494
142       0.000000259102
143      -0.000000621540
144       0.000000743497
145       0.000001171463
146      -0.000000177867
147       0.000000095678
148      -0.000000195059
149      -0.000000142178
150      -0.000000161840
151      -0.000000350270
152       0.000000068781
153      -0.000000150823
154       0.000000693024
155      -0.000001311902
156       0.000003694394
157       0.000006827376
158       0.000015773752
159      -0.000000688474
160       0.000000112509
161      -0.000000141842
162       0.000002500561
163      -0.000000395619
164       0.000000520510
165      -0.000007598235
166       0.000000743923
167      -0.000001769436
168      -0.000000160084
169       0.000000101796
170       0.000000004170
171       0.000000225764
172      -0.000000106349
173       0.000000824132
174      -0.000000581022
175       0.000000032711
176      -0.000001315383
177       0.000000506069
178      -0.000000160429
179      -0.000000239179
180       0.000000033324
181       0.000000186309
182      -0.000000038660
183      -0.000000334625
184       0.000000150249
 Sym=     1a
 Ene= -4.02746062639666E+02
 Spin= Alpha
 Occup= 1.000000
  1      -0.038359054944
  2      -0.045559559830
  3      -0.077514892814
  4      -0.153223756099
  5      -0.200795275133
  6      -0.059023594604
  7       0.497422234172
  8       0.578451358963
  9       0.079141469315
 10       0.005088943524
 11      -0.004439526344
 12       0.003113955340
 13      -0.002187014815
 14       0.001493153220
 15      -0.001011329916
 16       0.000650621055
 17      -0.000237780024
 18       0.000059603857
 19       0.000001712722
 20       0.000002343571
 21       0.000001428150
 22       0.000003004649
 23       0.000004105329
 24       0.000002502950
 25       0.000002206353
 26       0.000003014404
 27       0.000001837870
 28      -0.000000133009
 29      -0.000000182722
 30      -0.000000111206
 31      -0.000000929047
 32      -0.000001263927
 33      -0.000000771685
 34       0.000002672084
 35       0.000003639203
 36       0.000002221107
 37      -0.000005169959
 38      -0.000007045154
 39      -0.000004299050
 40       0.000009188054
 41       0.000012531886
 42       0.000007644879
 43      -0.000015685609
 44      -0.000021397052
 45      -0.000013052345
 46       0.000035110723
 47       0.000048024500
 48       0.000029269397
 49      -0.000006538653
 50      -0.000008953047
 51      -0.000005454706
 52       0.000000952074
 53       0.000001309627
 54       0.000000796703
 55       0.000001292976
 56      -0.000000227565
 57      -0.000000431964
 58      -0.000000481373
 59       0.000001416388
 60      -0.000000185880
 61       0.000000033210
 62       0.000000062610
 63       0.000000069030
 64      -0.000000202528
 65      -0.000000997924
 66       0.000000168553
 67       0.000000325261
 68       0.000000375264
 69      -0.000001109436
 70       0.000002954751
 71      -0.000000571349
 72      -0.000001057251
 73      -0.000001055788
 74       0.000003110583
 75      -0.000006591476
 76       0.000001304772
 77       0.000002398819
 78       0.000002330697
 79      -0.000006865554
 80       0.000011627202
 81      -0.000002226562
 82      -0.000004132946
 83      -0.000004169871
 84       0.000012292193
 85      -0.000032290562
 86       0.000006129660
 87       0.000011418985
 88       0.000011604267
 89      -0.000034258777
 90       0.000003280633
 91      -0.000000805398
 92      -0.000001400678
 93      -0.000001035250
 94       0.000003038153
 95       0.000000020161
 96       0.000000026478
 97       0.000000034317
 98      -0.000000033442
 99       0.000000095950
100      -0.000000612112
101      -0.000000274785
102      -0.000000313280
103       0.000000102930
104      -0.000000451261
105      -0.000001376759
106       0.000000440939
107       0.000003128070
108       0.000001427420
109       0.000001627956
110      -0.000000560152
111       0.000002427395
112       0.000007225586
113      -0.000002315436
114      -0.000009332877
115      -0.000004299105
116      -0.000004895639
117       0.000001728890
118      -0.000007426879
119      -0.000021850378
120       0.000007004070
121       0.000000597364
122      -0.000002954336
123       0.000005838276
124      -0.000016874388
125      -0.000031224337
126      -0.000072659938
127      -0.000001488192
128       0.000002864981
129       0.000000768000
130       0.000005257011
131      -0.000010226595
132      -0.000002756433
133      -0.000014035662
134       0.000031898107
135       0.000009242422
136       0.000000729200
137       0.000000180966
138      -0.000000535040
139       0.000000555714
140       0.000001025786
141      -0.000003665931
142      -0.000001203230
143       0.000002884381
144      -0.000003453028
145      -0.000005433561
146       0.000000828264
147      -0.000000446597
148       0.000000909946
149       0.000000662238
150       0.000000756647
151       0.000001635431
152      -0.000000320475
153       0.000000597373
154      -0.000002954062
155       0.000005836200
156      -0.000016845759
157      -0.000031133606
158      -0.000072440994
159       0.000003211072
160      -0.000000521627
161       0.000000662835
162      -0.000011406418
163       0.000001804441
164      -0.000002374408
165       0.000034887199
166      -0.000003406591
167       0.000008128084
168       0.000000759296
169      -0.000000487466
170      -0.000000016170
171      -0.000001082063
172       0.000000500449
173      -0.000003821639
174       0.000002696457
175      -0.000000152730
176       0.000006103914
177      -0.000002344400
178       0.000000746684
179       0.000001115465
180      -0.000000155657
181      -0.000000868982
182       0.000000182178
183       0.000001561428
184      -0.000000701883
 Sym=     1a
 Ene= -3.55472036075666E+02
 Spin= Alpha
 Occup= 1.000000
  1      -0.000000000000
  2      -0.000000000000
  3      -0.000000000001
  4      -0.000000000001
  5      -0.000000000002
  6       0.000000000001
  7       0.000000000002
  8       0.000000000005
  9      -0.000000000004
 10       0.000000000008
 11      -0.000000000015
 12       0.000000000024
 13      -0.000000000038
 14       0.000000000052
 15      -0.000000000054
 16       0.000000000036
 17       0.000000000001
 18      -0.000000000002
 19      -0.089317481515
 20      -0.134096502572
 21       0.327164645337
 22      -0.117426875939
 23      -0.176298448012
 24       0.430127692454
 25      -0.072882997592
 26      -0.109422645021
 27       0.266966103989
 28      -0.003183931843
 29      -0.004780185440
 30       0.011662553790
 31      -0.001417626599
 32      -0.002128348955
 33       0.005192682266
 34       0.000962568656
 35       0.001445149230
 36      -0.003525831962
 37      -0.000575572609
 38      -0.000864134002
 39       0.002108288344
 40       0.000343061548
 41       0.000515054286
 42      -0.001256614067
 43      -0.000199312244
 44      -0.000299236741
 45       0.000730068859
 46       0.000109908064
 47       0.000165010066
 48      -0.000402586630
 49      -0.000051758005
 50      -0.000077706703
 51       0.000189586494
 52       0.000016500494
 53       0.000024772961
 54      -0.000060440331
 55       0.000001296155
 56       0.000000694837
 57       0.000000920158
 58       0.000000257400
 59      -0.000000703477
 60      -0.000000586420
 61      -0.000000315186
 62      -0.000000415761
 63      -0.000000116007
 64       0.000000318462
 65      -0.000000259181
 66      -0.000000137499
 67      -0.000000184954
 68      -0.000000052255
 69       0.000000140338
 70       0.000000459477
 71       0.000000243621
 72       0.000000327980
 73       0.000000092712
 74      -0.000000248761
 75      -0.000000937264
 76      -0.000000497669
 77      -0.000000668550
 78      -0.000000188726
 79       0.000000507599
 80       0.000001237931
 81       0.000000658059
 82       0.000000882520
 83       0.000000248861
 84      -0.000000670601
 85      -0.000000716153
 86      -0.000000384116
 87      -0.000000508260
 88      -0.000000142090
 89       0.000000388727
 90      -0.000002168644
 91      -0.000001161564
 92      -0.000001540210
 93      -0.000000431206
 94       0.000001176787
 95       0.000000621562
 96       0.000000332713
 97       0.000000441582
 98       0.000000123702
 99      -0.000000337236
100       0.000000348125
101      -0.000000133899
102      -0.000000232332
103      -0.000000130982
104       0.000000357429
105      -0.000000186161
106       0.000000049876
107      -0.000001447057
108       0.000000552379
109       0.000000960533
110       0.000000544803
111      -0.000001488108
112       0.000000776335
113      -0.000000208293
114       0.000001871047
115      -0.000000714662
116      -0.000001233991
117      -0.000000709590
118       0.000001924396
119      -0.000001007012
120       0.000000266170
121       0.000000000000
122      -0.000000000000
123       0.000000000001
124      -0.000000000002
125      -0.000000000002
126      -0.000000000002
127      -0.000000371909
128      -0.000000558362
129       0.000001362278
130       0.000000610828
131       0.000000917058
132      -0.000002237421
133      -0.000001819687
134      -0.000002731978
135       0.000006665403
136      -0.000001012679
137       0.000001221764
138      -0.000001894283
139      -0.000001164612
140       0.000000147225
141       0.000002865907
142      -0.000003466683
143       0.000005366904
144       0.000003300828
145      -0.000000414586
146       0.000001819487
147       0.000000879320
148      -0.000002478053
149       0.000001147827
150       0.000002566516
151      -0.000000606128
152       0.000001779292
153       0.000000000001
154      -0.000000000003
155       0.000000000005
156      -0.000000000015
157      -0.000000000021
158      -0.000000000029
159      -0.000000370289
160      -0.000000555939
161       0.000001356364
162       0.000000604749
163       0.000000907964
164      -0.000002215222
165      -0.000001816164
166      -0.000002726717
167       0.000006652559
168      -0.000000877033
169      -0.000002232539
170       0.000000551249
171       0.000000788106
172       0.000000877888
173       0.000002476793
174       0.000006315460
175      -0.000001563840
176      -0.000002231462
177      -0.000002481635
178       0.000001995629
179      -0.000002322078
180      -0.000000027623
181      -0.000002591368
182       0.000001365108
183      -0.000001452809
184      -0.000001230562
 Sym=     1a
 Ene= -3.55471981700612E+02
 Spin= Alpha
 Occup= 1.000000
  1      -0.000000437910
  2      -0.000000485046
  3      -0.000001023886
  4      -0.000001361244
  5      -0.000003446082
  6       0.000002452787
  7       0.000001356401
  8       0.000011739110
  9      -0.000011707230
 10       0.000029069513
 11      -0.000051373067
 12       0.000082870765
 13      -0.000131038965
 14       0.000183191889
 15      -0.000191484362
 16       0.000128284246
 17       0.000001824944
 18      -0.000005249999
 19      -0.193709137419
 20      -0.263738862426
 21      -0.160983382816
 22      -0.254671027243
 23      -0.346739693109
 24      -0.211646202925
 25      -0.158065993559
 26      -0.215210009674
 27      -0.131361889758
 28      -0.006903402006
 29      -0.009399118861
 30      -0.005737121888
 31      -0.003078163587
 32      -0.004190984184
 33      -0.002558131363
 34       0.002094607190
 35       0.002851857817
 36       0.001740741871
 37      -0.001261203028
 38      -0.001717179629
 39      -0.001048142772
 40       0.000766341365
 41       0.001043473121
 42       0.000636907977
 43      -0.000461175423
 44      -0.000628010197
 45      -0.000383308509
 46       0.000268474508
 47       0.000365477367
 48       0.000223094698
 49      -0.000116596144
 50      -0.000158743048
 51      -0.000096896046
 52       0.000036178994
 53       0.000049264528
 54       0.000030069317
 55       0.000000728907
 56      -0.000000892775
 57      -0.000001245400
 58       0.000000322579
 59      -0.000001049772
 60       0.000000616347
 61       0.000000221581
 62       0.000000225337
 63      -0.000000483900
 64       0.000001472164
 65      -0.000003191425
 66       0.000000760806
 67       0.000001330737
 68       0.000001027970
 69      -0.000003011980
 70       0.000007539409
 71      -0.000001792636
 72      -0.000003137989
 73      -0.000002431494
 74       0.000007126522
 75      -0.000015545932
 76       0.000003723251
 77       0.000006509310
 78       0.000004987142
 79      -0.000014626786
 80       0.000023560038
 81      -0.000005500450
 82      -0.000009683180
 83      -0.000007661521
 84       0.000022507378
 85      -0.000023455126
 86       0.000005131350
 87       0.000009127688
 88       0.000007988218
 89      -0.000023285699
 90      -0.000000138578
 91       0.000001370530
 92       0.000001814029
 93      -0.000000999735
 94       0.000003105343
 95       0.000001019386
 96      -0.000000593334
 97      -0.000000882148
 98      -0.000000059262
 99       0.000000116625
100      -0.000001702577
101      -0.000000728200
102      -0.000000830394
103       0.000000232902
104      -0.000001069732
105      -0.000003538289
106       0.000001131839
107       0.000008389533
108       0.000003619348
109       0.000004132245
110      -0.000001195174
111       0.000005446649
112       0.000017709013
113      -0.000005665404
114      -0.000007267740
115      -0.000003107896
116      -0.000003520859
117       0.000000994909
118      -0.000004488791
119      -0.000014997076
120       0.000004788382
121       0.000001087659
122      -0.000005479336
123       0.000010870844
124      -0.000030216902
125      -0.000040901861
126      -0.000055656061
127      -0.000005438654
128       0.000008034950
129       0.000001808544
130       0.000017003973
131      -0.000028742240
132      -0.000007138550
133      -0.000017022381
134       0.000021265471
135       0.000004068986
136       0.000002746148
137       0.000001161527
138      -0.000001172888
139       0.000001393561
140       0.000005182778
141      -0.000011598737
142      -0.000004902835
143       0.000006596897
144      -0.000008399384
145      -0.000020657736
146       0.000001082445
147      -0.000001923984
148       0.000002492400
149      -0.000000246851
150       0.000001835301
151       0.000004640065
152       0.000002407750
153       0.000001089595
154      -0.000005487945
155       0.000010883394
156      -0.000030199191
157      -0.000040840230
158      -0.000055696317
159       0.000009392538
160      -0.000002648939
161       0.000001478471
162      -0.000032758249
163       0.000007153056
164      -0.000006011290
165       0.000025724923
166      -0.000009508981
167       0.000003125526
168       0.000002844349
169      -0.000001149404
170       0.000000619842
171      -0.000004262992
172       0.000003356371
173      -0.000012040976
174       0.000006398098
175      -0.000002191093
176       0.000019269416
177      -0.000011681337
178       0.000000811111
179       0.000003132494
180      -0.000001130562
181      -0.000000596632
182       0.000001358332
183       0.000002444987
184      -0.000004693576
 Sym=     1a
 Ene= -3.55471519486633E+02
 Spin= Alpha
 Occup= 1.000000
  1       0.000000000653
  2       0.000000000766
  3       0.000000001331
  4       0.000000002511
  5       0.000000003630
  6       0.000000000512
  7      -0.000000006647
  8      -0.000000009230
  9      -0.000000005952
 10      -0.000000001481
 11       0.000000009343
 12      -0.000000027469
 13       0.000000086688
 14      -0.000000186489
 15       0.000000140127
 16      -0.000000031262
 17       0.000000070262
 18      -0.000000027876
 19      -0.295798046830
 20       0.213206593230
 21       0.006633729923
 22      -0.388886113639
 23       0.280303011380
 24       0.008721373965
 25      -0.241372152774
 26       0.173977262370
 27       0.005413144857
 28      -0.010537107228
 29       0.007594981018
 30       0.000236310715
 31      -0.004710414301
 32       0.003395194668
 33       0.000105639133
 34       0.003219159298
 35      -0.002320324907
 36      -0.000072196847
 37      -0.001963815197
 38       0.001415504319
 39       0.000044048629
 40       0.001235491057
 41      -0.000890575850
 42      -0.000027729653
 43      -0.000793968484
 44       0.000572345130
 45       0.000017832676
 46       0.000531181656
 47      -0.000382852560
 48      -0.000011906510
 49      -0.000192243215
 50       0.000138574674
 51       0.000004314954
 52       0.000056218192
 53      -0.000040527923
 54      -0.000001263540
 55       0.000000017212
 56      -0.000000460749
 57       0.000000358735
 58      -0.000001128211
 59      -0.000000366955
 60       0.000000029661
 61      -0.000000759279
 62       0.000000591456
 63      -0.000001860510
 64      -0.000000602425
 65      -0.000000134221
 66       0.000003460646
 67      -0.000002695842
 68       0.000008479356
 69       0.000002747203
 70       0.000000318591
 71      -0.000008227064
 72       0.000006409732
 73      -0.000020159121
 74      -0.000006531137
 75      -0.000000653128
 76       0.000016987367
 77      -0.000013237915
 78       0.000041626318
 79       0.000013490864
 80       0.000001002530
 81      -0.000026170757
 82       0.000020397662
 83      -0.000064132176
 84      -0.000020787444
 85      -0.000001379151
 86       0.000033898648
 87      -0.000026383997
 88       0.000083066951
 89       0.000026824444
 90      -0.000000044698
 91       0.000001184995
 92      -0.000000922659
 93       0.000002901968
 94       0.000000943051
 95       0.000000062160
 96      -0.000001515224
 97       0.000001178429
 98      -0.000003711945
 99      -0.000001198868
100       0.000000163485
101      -0.000002964330
102       0.000002035720
103       0.000002729251
104       0.000001044170
105       0.000000235294
106       0.000000946327
107      -0.000000810800
108       0.000014639541
109      -0.000010035216
110      -0.000014057713
111      -0.000005333964
112      -0.000000926241
113      -0.000003934879
114       0.000000881929
115      -0.000016584083
116       0.000011275162
117       0.000017649264
118       0.000006530686
119       0.000000235489
120       0.000002271599
121      -0.000002097841
122       0.000010544902
123      -0.000020854875
124       0.000058261121
125       0.000088944115
126       0.000136383914
127       0.000006244563
128      -0.000014332523
129      -0.000004169742
130      -0.000023408734
131       0.000050472663
132       0.000014296768
133       0.000025404691
134      -0.000051791557
135      -0.000014292445
136      -0.000003601026
137      -0.000001642844
138       0.000004012208
139      -0.000005765344
140      -0.000005119041
141       0.000016483929
142       0.000007415777
143      -0.000017032592
144       0.000024219610
145       0.000024279294
146      -0.000003087103
147       0.000001038305
148      -0.000002933784
149      -0.000003248047
150      -0.000003016027
151      -0.000005527834
152       0.000003120436
153       0.000002100986
154      -0.000010558849
155       0.000020875018
156      -0.000058228693
157      -0.000088825119
158      -0.000136420011
159       0.000015689588
160      -0.000001480680
161       0.000003676434
162      -0.000055541555
163       0.000006531150
164      -0.000012486137
165       0.000057648180
166      -0.000008024022
167       0.000012449364
168       0.000003836288
169      -0.000003901537
170       0.000000298868
171      -0.000007820879
172       0.000000744030
173      -0.000017440227
174       0.000016506451
175      -0.000001601289
176       0.000034411860
177      -0.000005333213
178       0.000002850513
179       0.000003553548
180      -0.000000095827
181      -0.000004016372
182       0.000000496028
183       0.000006479117
184      -0.000000721874
 Sym=     1a
 Ene= -9.35505668357110E+01
 Spin= Alpha
 Occup= 1.000000
  1      -0.018196202988
  2      -0.021937870607
  3      -0.037594141503
  4      -0.075819469913
  5      -0.104343854960
  6      -0.023996730897
  7       0.396878588078
  8       0.682378137157
  9      -0.526080012770
 10      -0.866747112085
 11      -0.015548148846
 12      -0.039633995309
 13       0.026674404081
 14      -0.018182881060
 15       0.012472393233
 16      -0.008051830455
 17       0.002952150003
 18      -0.000741318270
 19      -0.000001071791
 20      -0.000001421728
 21      -0.000000875341
 22      -0.000001655571
 23      -0.000002194157
 24      -0.000001351318
 25       0.000002626789
 26       0.000003563989
 27       0.000002177911
 28      -0.000005517140
 29      -0.000007658552
 30      -0.000004645220
 31       0.000020660174
 32       0.000028098132
 33       0.000017157042
 34      -0.000034157702
 35      -0.000046544615
 36      -0.000028402654
 37       0.000061356377
 38       0.000083638335
 39       0.000051031779
 40      -0.000112419816
 41      -0.000153367353
 42      -0.000093552464
 43       0.000192291389
 44       0.000262339390
 45       0.000160022608
 46      -0.000433875042
 47      -0.000593471537
 48      -0.000361698614
 49       0.000081212335
 50       0.000111202626
 51       0.000067750440
 52      -0.000011824852
 53      -0.000016266976
 54      -0.000009895655