[Molden Format]
[Title]
 Molden file created by orca_2mkl for BaseName=/home/smirnovaanastasia2304_2125/_scratch/HERBD/Dy_Cl_cc

[Atoms] AU
Dy   1  66          0.2608577955         0.4733518301        -0.7187932398 
Cl   2  17         -1.6002824512        -2.4977247305        -3.6816362637 
Cl   3  17         -1.8060471710         4.4611804193         0.3514418178 
Cl   4  17          4.7120585711        -0.2213266145         0.2116720037 
[GTO]
  1 0
s   6 1.0 
  1205955.4869470000      2343.1624566555
   535980.2164210000      -627.7994472729
   238213.4295200000      1364.0035146170
   105872.6353420000       302.4256254711
    47054.5045970000       818.7689739381
    20913.1131540000       608.0650635993
s   1 1.0 
     9294.7169570000       674.6635063570
s   1 1.0 
     4130.9853140000       367.2402974633
s   1 1.0 
     1835.9934730000       199.9002981809
s   1 1.0 
      815.9970990000       108.8119399830
s   1 1.0 
      362.6653770000        59.2297179326
s   1 1.0 
      161.1846120000        32.2405747875
s   1 1.0 
       71.6376050000        17.5495459929
s   1 1.0 
       31.8389360000         9.5527629667
s   1 1.0 
       14.1506380000         5.1998654726
s   1 1.0 
        6.2891720000         2.8304481031
s   1 1.0 
        2.7951880000         1.5407009828
s   1 1.0 
        1.2423060000         0.8386515023
s   1 1.0 
        0.5521360000         0.4565040562
s   1 1.0 
        0.2453940000         0.2484895028
s   1 1.0 
        0.1090640000         0.1352605530
s   1 1.0 
        0.0484730000         0.0736266459
s   1 1.0 
        0.0215430000         0.0400764947
p   5 1.0 
    16500.5200280000      3551.8560429283
     6600.2080110000      1399.7999583687
     2640.0832040000      2214.2919302472
     1056.0332820000      2141.5505502747
      422.4133130000      2025.6781866708
p   1 1.0 
      168.9653250000       868.3345329533
p   1 1.0 
       67.5861300000       276.2244147341
p   1 1.0 
       27.0344520000        87.8692766435
p   1 1.0 
       10.8137810000        27.9519461152
p   1 1.0 
        4.3255120000         8.8917447952
p   1 1.0 
        1.7302050000         2.8285381540
p   1 1.0 
        0.6920820000         0.8997814396
p   1 1.0 
        0.2768330000         0.2862281950
p   1 1.0 
        0.1107330000         0.0910513565
p   1 1.0 
        0.0442930000         0.0289640280
p   1 1.0 
        0.0177170000         0.0092135674
d   4 1.0 
     1185.0486620000      5578.8882618905
      430.9267860000      5315.6245441556
      156.7006500000      4970.6577614337
       56.9820540000      2696.5017083068
d   1 1.0 
       20.7207470000       573.6929957731
d   1 1.0 
        7.5348170000        97.6893734623
d   1 1.0 
        2.7399330000        16.6347004211
d   1 1.0 
        0.9963390000         2.8325824609
d   1 1.0 
        0.3623050000         0.4823365324
d   1 1.0 
        0.1317470000         0.0821327509
d   1 1.0 
        0.0479080000         0.0139856983
d   1 1.0 
        0.0174210000         0.0023814857
f   4 1.0 
       33.8369440000      1676.3832547388
       11.2789810000       461.3524932850
        3.7596600000        58.3481478782
        1.2532200000         3.4646432581
f   1 1.0 
        0.4177400000         0.7999055676
f   1 1.0 
        0.1392470000         0.0675333410

  2 0
s   7 1.0 
    69507.9909450000         4.1142286333
    10426.1568800000         4.2286655222
     2373.2334061000         5.8493829067
      671.5642007100         8.3358677251
      218.4199979000        10.0089622684
       77.5722497100         8.2783277553
       28.8888152800         2.9822029766
s   1 1.0 
      127.1052718500        26.9794296956
s   1 1.0 
       39.3395829600        11.1952141621
s   1 1.0 
        7.6740680000         3.2860890225
s   1 1.0 
        3.8745627600        -1.9682357562
s   1 1.0 
        1.8385832600         1.1253110111
s   1 1.0 
        0.5022905800        -0.4252324193
s   1 1.0 
        0.1796272300         0.1966478587
p   6 1.0 
      666.5042328400        13.1758105786
      157.6424169000        16.0544655669
       50.2625209800        17.4320614645
       18.5360781100        14.3789566857
        7.2940532800         7.6571902731
        2.9433249000         1.9874071930
p   1 1.0 
        1.0404970800         1.4979287975
p   1 1.0 
        0.3845641500        -0.4316692201
p   1 1.0 
        0.1306964300         0.1120133392
d   2 1.0 
        4.6100000000         7.5524217504
        1.0110000000         2.6539585854
d   1 1.0 
        0.3390000000         0.4293579962
f   1 1.0 
        0.7060000000         2.6050175686

  3 0
s   7 1.0 
    69507.9909450000         4.1142286333
    10426.1568800000         4.2286655222
     2373.2334061000         5.8493829067
      671.5642007100         8.3358677251
      218.4199979000        10.0089622684
       77.5722497100         8.2783277553
       28.8888152800         2.9822029766
s   1 1.0 
      127.1052718500        26.9794296956
s   1 1.0 
       39.3395829600        11.1952141621
s   1 1.0 
        7.6740680000         3.2860890225
s   1 1.0 
        3.8745627600        -1.9682357562
s   1 1.0 
        1.8385832600         1.1253110111
s   1 1.0 
        0.5022905800        -0.4252324193
s   1 1.0 
        0.1796272300         0.1966478587
p   6 1.0 
      666.5042328400        13.1758105786
      157.6424169000        16.0544655669
       50.2625209800        17.4320614645
       18.5360781100        14.3789566857
        7.2940532800         7.6571902731
        2.9433249000         1.9874071930
p   1 1.0 
        1.0404970800         1.4979287975
p   1 1.0 
        0.3845641500        -0.4316692201
p   1 1.0 
        0.1306964300         0.1120133392
d   2 1.0 
        4.6100000000         7.5524217504
        1.0110000000         2.6539585854
d   1 1.0 
        0.3390000000         0.4293579962
f   1 1.0 
        0.7060000000         2.6050175686

  4 0
s   7 1.0 
    69507.9909450000         4.1142286333
    10426.1568800000         4.2286655222
     2373.2334061000         5.8493829067
      671.5642007100         8.3358677251
      218.4199979000        10.0089622684
       77.5722497100         8.2783277553
       28.8888152800         2.9822029766
s   1 1.0 
      127.1052718500        26.9794296956
s   1 1.0 
       39.3395829600        11.1952141621
s   1 1.0 
        7.6740680000         3.2860890225
s   1 1.0 
        3.8745627600        -1.9682357562
s   1 1.0 
        1.8385832600         1.1253110111
s   1 1.0 
        0.5022905800        -0.4252324193
s   1 1.0 
        0.1796272300         0.1966478587
p   6 1.0 
      666.5042328400        13.1758105786
      157.6424169000        16.0544655669
       50.2625209800        17.4320614645
       18.5360781100        14.3789566857
        7.2940532800         7.6571902731
        2.9433249000         1.9874071930
p   1 1.0 
        1.0404970800         1.4979287975
p   1 1.0 
        0.3845641500        -0.4316692201
p   1 1.0 
        0.1306964300         0.1120133392
d   2 1.0 
        4.6100000000         7.5524217504
        1.0110000000         2.6539585854
d   1 1.0 
        0.3390000000         0.4293579962
f   1 1.0 
        0.7060000000         2.6050175686

[5D]
[7F]
[9G]
[MO]
 Sym=     1a
 Ene= -1.98384364537087E+03
 Spin= Alpha
 Occup= 1.000000
  1      -0.090385337527
  2      -0.100327706018
  3      -0.175631440711
  4      -0.300263351283
  5      -0.338092837552
  6      -0.169988758995
  7      -0.009706164246
  8      -0.003290284051
  9       0.002395884031
 10      -0.001583979003
 11       0.001066253792
 12      -0.000716515693
 13       0.000477200698
 14      -0.000320164292
 15       0.000213055866
 16      -0.000121388739
 17       0.000037986971
 18      -0.000009168177
 19       0.000000058764
 20       0.000000023080
 21      -0.000000119388
 22      -0.000000056427
 23      -0.000000027515
 24       0.000000102116
 25       0.000000050655
 26       0.000000022454
 27      -0.000000097093
 28      -0.000000063223
 29      -0.000000028264
 30       0.000000122814
 31       0.000000094182
 32       0.000000041665
 33      -0.000000184174
 34      -0.000000151972
 35      -0.000000066126
 36       0.000000299308
 37       0.000000259946
 38       0.000000111786
 39      -0.000000514217
 40      -0.000000443458
 41      -0.000000195206
 42       0.000000889512
 43       0.000000655709
 44       0.000000387812
 45      -0.000001384141
 46      -0.000000663589
 47      -0.000000648460
 48       0.000001553233
 49       0.000000045735
 50      -0.000000053780
 51      -0.000000054362
 52       0.000000036519
 53       0.000000043383
 54      -0.000000079393
 55       0.000000144637
 56      -0.000000131762
 57      -0.000000220303
 58      -0.000000020513
 59       0.000000051785
 60      -0.000000209716
 61       0.000000186459
 62       0.000000307313
 63       0.000000030408
 64      -0.000000102400
 65       0.000000342451
 66      -0.000000300912
 67      -0.000000490172
 68      -0.000000051278
 69       0.000000193533
 70      -0.000000625595
 71       0.000000547512
 72       0.000000886544
 73       0.000000095441
 74      -0.000000373454
 75       0.000001206602
 76      -0.000001056781
 77      -0.000001704984
 78      -0.000000186221
 79       0.000000731003
 80      -0.000002305728
 81       0.000002021350
 82       0.000003246857
 83       0.000000355699
 84      -0.000001399826
 85       0.000003741453
 86      -0.000003227022
 87      -0.000005193812
 88      -0.000000528597
 89       0.000002309785
 90       0.000000100540
 91      -0.000000198321
 92      -0.000000121481
 93      -0.000000104614
 94      -0.000000025569
 95      -0.000000243275
 96       0.000000216991
 97       0.000000334617
 98       0.000000042157
 99      -0.000000144655
100       0.000000048693
101       0.000000087140
102       0.000000116866
103      -0.000000072869
104       0.000000186334
105       0.000000280727
106      -0.000000075538
107      -0.000000340007
108      -0.000000591985
109      -0.000000797983
110       0.000000499875
111      -0.000001291443
112      -0.000001934327
113       0.000000518067
114       0.000000977480
115       0.000001461648
116       0.000002067217
117      -0.000001261755
118       0.000003488676
119       0.000005164000
120      -0.000001351655
121      -0.000000078255
122       0.000000087727
123      -0.000000081772
124       0.000000627128
125       0.000001303498
126       0.000001097751
127       0.000000446529
128       0.000006707866
129      -0.000000048027
130      -0.000000073083
131      -0.000000069685
132       0.000000281985
133       0.000000429321
134       0.000000411417
135      -0.000000208082
136      -0.000000364589
137      -0.000000390474
138       0.000000971476
139       0.000002071462
140       0.000002068923
141      -0.000000058027
142       0.000000237948
143       0.000000308724
144      -0.000000022156
145       0.000000090951
146       0.000000109543
147      -0.000000920065
148      -0.000001226312
149       0.000000155304
150      -0.000000515597
151       0.000000602122
152      -0.000000472688
153      -0.000000723599
154       0.000000515874
155      -0.000001084802
156      -0.000000522204
157       0.000000059446
158      -0.000000073187
159       0.000000082014
160      -0.000000076337
161       0.000000583608
162       0.000001207256
163       0.000001006381
164       0.000000491637
165       0.000006835199
166      -0.000000048474
167       0.000000088642
168       0.000000027474
169       0.000000270096
170      -0.000000494632
171      -0.000000152630
172      -0.000000327763
173       0.000000677370
174       0.000000147602
175       0.000001363944
176      -0.000002789392
177      -0.000000670144
178      -0.000000207155
179       0.000000035245
180       0.000000224212
181      -0.000000106138
182      -0.000000240604
183       0.000000722397
184      -0.000000022773
185      -0.000000756694
186       0.000000456682
187       0.000000916948
188      -0.000000553376
189       0.000000365818
190      -0.000000652193
191      -0.000000497183
192      -0.000000520835
193      -0.000001150851
194       0.000000110190
195      -0.000000076476
196       0.000000085720
197      -0.000000079856
198       0.000000611667
199       0.000001268879
200       0.000001063653
201       0.000000445764
202       0.000006651315
203       0.000000106200
204      -0.000000016909
205       0.000000025796
206      -0.000000615272
207       0.000000097169
208      -0.000000148276
209       0.000000598137
210      -0.000000091212
211       0.000000094607
212      -0.000002967811
213       0.000000607917
214      -0.000000385183
215      -0.000000211647
216       0.000000202950
217       0.000000105697
218       0.000000244601
219      -0.000000093836
220       0.000000785573
221      -0.000000757567
222      -0.000000266540
223      -0.000001059979
224       0.000000362376
225      -0.000000500908
226      -0.000000811873
227       0.000000140579
228       0.000000645344
229      -0.000000096009
230      -0.000001052000
231       0.000000561829
 Sym=     1a
 Ene= -3.35567610041181E+02
 Spin= Alpha
 Occup= 1.000000
  1      -0.034048018787
  2      -0.041711714373
  3      -0.073951698344
  4      -0.149188310922
  5      -0.204272654328
  6      -0.077414353900
  7       0.476792167694
  8       0.596811553713
  9       0.092682384120
 10       0.004383228907
 11      -0.003868525350
 12       0.002746396155
 13      -0.001970774367
 14       0.001368417774
 15      -0.000918272482
 16       0.000526198763
 17      -0.000164641975
 18       0.000039798065
 19       0.000000031532
 20       0.000000340904
 21       0.000000529111
 22      -0.000000003944
 23       0.000000466112
 24       0.000000821413
 25      -0.000000198997
 26       0.000000295007
 27       0.000000902728
 28      -0.000000004490
 29      -0.000000012350
 30       0.000000193241
 31      -0.000000256316
 32      -0.000000082179
 33       0.000000484133
 34       0.000000589201
 35       0.000000245070
 36      -0.000001148418
 37      -0.000001070210
 38      -0.000000451733
 39       0.000002107121
 40       0.000001881427
 41       0.000000822102
 42      -0.000003773972
 43      -0.000002847287
 44      -0.000001691605
 45       0.000006003791
 46       0.000002877668
 47       0.000002850027
 48      -0.000006751992
 49      -0.000000195766
 50       0.000000239914
 51       0.000000228971
 52      -0.000000159940
 53      -0.000000191618
 54       0.000000347674
 55      -0.000018716519
 56       0.000017091688
 57       0.000028683465
 58       0.000002606516
 59      -0.000006262167
 60      -0.000001904472
 61       0.000001735235
 62       0.000002932685
 63       0.000000246184
 64      -0.000000569451
 65      -0.000000605978
 66       0.000000523977
 67       0.000000812644
 68       0.000000112404
 69      -0.000000478218
 70       0.000002205751
 71      -0.000001928098
 72      -0.000003093654
 73      -0.000000351966
 74       0.000001394119
 75      -0.000005089362
 76       0.000004455538
 77       0.000007178058
 78       0.000000791358
 79      -0.000003113227
 80       0.000009963973
 81      -0.000008733780
 82      -0.000014019212
 83      -0.000001542284
 84       0.000006068134
 85      -0.000016317014
 86       0.000014066101
 87       0.000022638445
 88       0.000002302877
 89      -0.000010088253
 90      -0.000000465821
 91       0.000000894962
 92       0.000000568643
 93       0.000000465116
 94       0.000000103607
 95       0.000001067066
 96      -0.000000952192
 97      -0.000001467780
 98      -0.000000185186
 99       0.000000632790
100      -0.000000239584
101      -0.000000423317
102      -0.000000569138
103       0.000000354901
104      -0.000000911722
105      -0.000001371695
106       0.000000368014
107       0.000001508941
108       0.000002623212
109       0.000003535477
110      -0.000002215951
111       0.000005726238
112       0.000008575850
113      -0.000002296439
114      -0.000004294089
115      -0.000006415550
116      -0.000009075690
117       0.000005537981
118      -0.000015318408
119      -0.000022674927
120       0.000005934444
121       0.000000151382
122      -0.000000213958
123       0.000000334139
124      -0.000002456859
125      -0.000005259723
126      -0.000004462006
127      -0.000001806037
128      -0.000029355692
129       0.000000215216
130       0.000000328045
131       0.000000313571
132      -0.000001220805
133      -0.000001858732
134      -0.000001781071
135       0.000000976379
136       0.000001698491
137       0.000001810895
138      -0.000004215458
139      -0.000009023653
140      -0.000009012261
141       0.000000249987
142      -0.000001059404
143      -0.000001379769
144       0.000000105067
145      -0.000000414965
146      -0.000000491954
147       0.000004005055
148       0.000005329204
149      -0.000000663712
150       0.000002226749
151      -0.000002623050
152       0.000002056166
153       0.000003147464
154      -0.000002244373
155       0.000004718335
156       0.000002269546
157      -0.000000257848
158       0.000000141372
159      -0.000000199838
160       0.000000311703
161      -0.000002284352
162      -0.000004867831
163      -0.000004086902
164      -0.000002027136
165      -0.000029948171
166       0.000000217283
167      -0.000000398241
168      -0.000000122650
169      -0.000001166149
170       0.000002134687
171       0.000000659231
172       0.000001506511
173      -0.000003103335
174      -0.000000683981
175      -0.000005944577
176       0.000012165650
177       0.000002919660
178       0.000000921750
179      -0.000000148559
180      -0.000000994024
181       0.000000480574
182       0.000001076593
183      -0.000003138895
184       0.000000115643
185       0.000003294850
186      -0.000001966127
187      -0.000003972235
188       0.000002407313
189      -0.000001591734
190       0.000002835509
191       0.000002164977
192       0.000002263128
193       0.000005002038
194      -0.000000477343
195       0.000000147853
196      -0.000000208956
197       0.000000326179
198      -0.000002394996
199      -0.000005117015
200      -0.000004319476
201      -0.000001805506
202      -0.000029114143
203      -0.000000477196
204       0.000000075850
205      -0.000000115115
206       0.000002663886
207      -0.000000420976
208       0.000000641925
209      -0.000002768363
210       0.000000421782
211      -0.000000446857
212       0.000012925307
213      -0.000002654548
214       0.000001666004
215       0.000000943874
216      -0.000000901784
217      -0.000000461697
218      -0.000001100889
219       0.000000420931
220      -0.000003418086
221       0.000003301523
222       0.000001176664
223       0.000004595050
224      -0.000001573565
225       0.000002180169
226       0.000003533053
227      -0.000000612772
228      -0.000002809009
229       0.000000414760
230       0.000004574828
231      -0.000002445278
 Sym=     1a
 Ene= -2.98398953993403E+02
 Spin= Alpha
 Occup= 1.000000
  1       0.000000064408
  2       0.000000080807
  3       0.000000134950
  4       0.000000302831
  5       0.000000346699
  6       0.000000243376
  7      -0.000001195406
  8      -0.000000798639
  9      -0.000000734579
 10       0.000001529735
 11      -0.000002597193
 12       0.000004225196
 13      -0.000006677444
 14       0.000009067878
 15      -0.000006296010
 16      -0.000000647484
 17       0.000000594316
 18      -0.000000375112
 19       0.130968703605
 20       0.264111008772
 21       0.201761698854
 22       0.175839146459
 23       0.354596322478
 24       0.270885927053
 25       0.111041460188
 26       0.223925849380
 27       0.171063190653
 28       0.005523347635
 29       0.011137419955
 30       0.008508063477
 31       0.002067091743
 32       0.004170294249
 33       0.003186019083
 34      -0.001423213077
 35      -0.002873335373
 36      -0.002195404861
 37       0.000866225623
 38       0.001752606902
 39       0.001339573489
 40      -0.000545445711
 41      -0.001109356709
 42      -0.000848790538
 43       0.000350474915
 44       0.000718246947
 45       0.000550566199
 46      -0.000201367111
 47      -0.000413742212
 48      -0.000317004557
 49       0.000072390765
 50       0.000144597319
 51       0.000110491011
 52      -0.000019541496
 53      -0.000037834700
 54      -0.000028898340
 55       0.000000151594
 56       0.000000069241
 57       0.000000254585
 58      -0.000000102107
 59       0.000000007682
 60      -0.000001224407
 61      -0.000001090420
 62      -0.000001323032
 63       0.000000600212
 64      -0.000002395727
 65       0.000004087677
 66       0.000003280201
 67       0.000004164946
 68      -0.000001747802
 69       0.000006954202
 70      -0.000009363657
 71      -0.000007690295
 72      -0.000009588795
 73       0.000004052493
 74      -0.000016426278
 75       0.000019270130
 76       0.000015849102
 77       0.000019746416
 78      -0.000008381205
 79       0.000033892716
 80      -0.000032395702
 81      -0.000026572534
 82      -0.000033154753
 83       0.000014275254
 84      -0.000057025734
 85       0.000025721117
 86       0.000019938186
 87       0.000024485894
 88      -0.000011290248
 89       0.000044689176
 90       0.000003771736
 91       0.000002832669
 92       0.000003785478
 93      -0.000001910884
 94       0.000006361215
 95      -0.000004104209
 96      -0.000003258066
 97      -0.000003992893
 98       0.000001692861
 99      -0.000007122864
100      -0.000000877151
101      -0.000000661045
102      -0.000000343545
103       0.000000098970
104      -0.000000244538
105       0.000000376259
106      -0.000000225712
107      -0.000015515185
108       0.000005732218
109       0.000006317633
110      -0.000009206280
111       0.000010970108
112      -0.000008159694
113       0.000004104482
114       0.000016790899
115      -0.000004702975
116      -0.000006756961
117       0.000011105667
118      -0.000010239915
119       0.000009506912
120      -0.000006808151
121       0.000000593503
122      -0.000000837446
123       0.000001347691
124      -0.000009660907
125      -0.000019667999
126      -0.000013767023
127       0.000018021236
128      -0.000036213824
129       0.000002210025
130       0.000003585058
131       0.000003570565
132      -0.000013140064
133      -0.000021387570
134      -0.000021211394
135      -0.000015670211
136      -0.000026416530
137      -0.000025503004
138      -0.000016245157
139      -0.000022648569
140      -0.000023473946
141      -0.000002027569
142      -0.000005777083
143      -0.000009781598
144       0.000003297389
145      -0.000006469269
146       0.000008312835
147       0.000025967221
148       0.000043602342
149      -0.000014540785
150       0.000028202866
151      -0.000009774477
152       0.000009737418
153       0.000015469099
154      -0.000010978306
155       0.000023342817
156       0.000012360850
157      -0.000001644113
158      -0.000000337036
159       0.000000475284
160      -0.000000763746
161       0.000005446211
162       0.000010994370
163       0.000007473815
164      -0.000010269938
165       0.000023902463
166      -0.000001492122
167       0.000002812023
168       0.000000736146
169       0.000008364062
170      -0.000016547429
171      -0.000004533754
172       0.000007249988
173      -0.000019879927
174      -0.000006795010
175       0.000010789238
176      -0.000019933679
177      -0.000005090893
178      -0.000003598786
179      -0.000001911449
180       0.000002562553
181      -0.000003839341
182      -0.000005591362
183       0.000014518354
184       0.000007579274
185      -0.000012279036
186       0.000017503902
187       0.000022267561
188      -0.000005762110
189       0.000005534546
190      -0.000009218425
191      -0.000002608956
192      -0.000006816957
193      -0.000016241234
194      -0.000001388056
195      -0.000000204587
196       0.000000288596
197      -0.000000463957
198       0.000003314088
199       0.000006706939
200       0.000004592777
201      -0.000006163023
202       0.000016209580
203       0.000001863781
204      -0.000000453648
205       0.000000285014
206      -0.000010966563
207       0.000002220580
208      -0.000001949248
209      -0.000012363844
210       0.000000264493
211      -0.000003520725
212      -0.000013300883
213       0.000000377286
214      -0.000003991783
215      -0.000002513424
216       0.000001183969
217      -0.000000432792
218       0.000003701943
219      -0.000002019734
220       0.000009980383
221      -0.000006543863
222       0.000001515246
223      -0.000016396803
224       0.000006206090
225      -0.000002407018
226      -0.000007575272
227       0.000002271792
228       0.000001679190
229      -0.000002339955
230      -0.000006893532
231       0.000008762612
 Sym=     1a
 Ene= -2.98397498476494E+02
 Spin= Alpha
 Occup= 1.000000
  1      -0.000000021591
  2      -0.000000029211
  3      -0.000000039001
  4      -0.000000124906
  5      -0.000000065569
  6      -0.000000210828
  7       0.000000799494
  8      -0.000000260640
  9       0.000000855363
 10      -0.000002051725
 11       0.000003656474
 12      -0.000005781093
 13       0.000008912894
 14      -0.000011772608
 15       0.000008315982
 16       0.000000743895
 17      -0.000002707918
 18       0.000001203531
 19       0.315162524712
 20      -0.167546214734
 21       0.014741764280
 22       0.423138789812
 23      -0.224948244561
 24       0.019792374641
 25       0.267205960711
 26      -0.142051663260
 27       0.012498615565
 28       0.013286807594
 29      -0.007062935402
 30       0.000621454071
 31       0.004976404578
 32      -0.002646661632
 33       0.000232855918
 34      -0.003427939288
 35       0.001824383056
 36      -0.000160493427
 37       0.002089625407
 38      -0.001114461027
 39       0.000098032005
 40      -0.001320631284
 41       0.000707987672
 42      -0.000062380813
 43       0.000852827994
 44      -0.000460843581
 45       0.000041018518
 46      -0.000490992267
 47       0.000266205098
 48      -0.000024038010
 49       0.000172736275
 50      -0.000091021475
 51       0.000008075308
 52      -0.000045487237
 53       0.000023277085
 54      -0.000002153207
 55       0.000000059944
 56       0.000000260749
 57      -0.000000128443
 58       0.000000044111
 59       0.000000124650
 60      -0.000000225359
 61       0.000001097273
 62      -0.000000991455
 63       0.000002700948
 64       0.000000563858
 65       0.000000784669
 66      -0.000002953273
 67       0.000002749032
 68      -0.000008429312
 69      -0.000001740239
 70      -0.000001744754
 71       0.000007138766
 72      -0.000006567715
 73       0.000019607075
 74       0.000004143110
 75       0.000003599185
 76      -0.000014765889
 77       0.000013581224
 78      -0.000040405350
 79      -0.000008532778
 80      -0.000006047932
 81       0.000024751157
 82      -0.000023027361
 83       0.000067806165
 84       0.000014247843
 85       0.000004069020
 86      -0.000018847782
 87       0.000019207237
 88      -0.000052733703
 89      -0.000011531427
 90       0.000000816905
 91      -0.000002558880
 92       0.000002709763
 93      -0.000007651714
 94      -0.000001336836
 95      -0.000000685712
 96       0.000003087424
 97      -0.000002909081
 98       0.000008539847
 99       0.000001882378
100      -0.000000194093
101       0.000000927127
102      -0.000000894447
103       0.000000724874
104       0.000000376743
105      -0.000000197950
106      -0.000000759468
107      -0.000001171641
108      -0.000015349575
109       0.000010912881
110       0.000012780251
111       0.000005753150
112      -0.000000694553
113       0.000006780799
114       0.000001009050
115       0.000016453829
116      -0.000012506073
117      -0.000012285157
118      -0.000006778435
119      -0.000000742549
120      -0.000008217267
121       0.000000044800
122      -0.000000063186
123       0.000000101468
124      -0.000000722012
125      -0.000001450930
126      -0.000000964587
127       0.000001277287
128      -0.000005860425
129       0.000000004085
130       0.000000368200
131       0.000000265063
132      -0.000000479064
133      -0.000001852897
134      -0.000001531833
135      -0.000002743182
136      -0.000000180781
137      -0.000001292873
138      -0.000002788125
139      -0.000001439160
140      -0.000002146193
141      -0.000000071468
142      -0.000000215719
143      -0.000001140767
144       0.000000992943
145      -0.000000038113
146       0.000000402090
147       0.000002230781
148       0.000003682910
149      -0.000001993778
150       0.000001393522
151      -0.000000943919
152      -0.000000736065
153       0.000002378988
154      -0.000005310332
155      -0.000000128832
156       0.000001423000
157       0.000003963782
158       0.000000438993
159      -0.000000619038
160       0.000000994635
161      -0.000007089447
162      -0.000014299796
163      -0.000009685355
164       0.000013559246
165      -0.000030891474
166       0.000001882862
167      -0.000003705346
168      -0.000001005904
169      -0.000011293185
170       0.000021524801
171       0.000005749467
172      -0.000014970813
173       0.000024032620
174       0.000005797699
175      -0.000013268819
176       0.000026192880
177       0.000007069089
178       0.000004163637
179       0.000002191851
180      -0.000003635342
181       0.000005477555
182       0.000007279954
183      -0.000018254834
184      -0.000008962862
185       0.000014809948
186      -0.000021458481
187      -0.000031528513
188       0.000009040675
189      -0.000004472800
190       0.000010066046
191       0.000008156713
192       0.000009839537
193       0.000019303762
194      -0.000005952968
195      -0.000000543038
196       0.000000766060
197      -0.000001232005
198       0.000008810969
199       0.000017868597
200       0.000012331658
201      -0.000016856514
202       0.000033935585
203       0.000004999751
204      -0.000000747323
205       0.000001053573