[Molden Format]
[Title]
 Molden file created by orca_2mkl for BaseName=/home/nikolayandreadi_2125/_scratch/F1_cc/Lu_F1_cc

[Atoms] AU
Lu   1  71         -0.0149836385        -0.5058721271        -1.5047001033 
F    2   9         -1.4472996720         2.6612011589        -0.5976296693 
[GTO]
  1 0
s   6 1.0 
  1397555.9200170001      2804.5119890306
   621135.9644520000      -768.2142817432
   276060.4286450000      1614.2664970544
   122693.5238420000       325.7081593792
    54530.4550410000       933.9810932816
    24235.7577960000       660.3076369236
s   1 1.0 
    10771.4479090000       753.5562155476
s   1 1.0 
     4787.3101820000       410.1840490352
s   1 1.0 
     2127.6934140000       223.2759157081
s   1 1.0 
      945.6415170000       121.5360144873
s   1 1.0 
      420.2851190000        66.1558268983
s   1 1.0 
      186.7933860000        36.0106709485
s   1 1.0 
       83.0192830000        19.6017265299
s   1 1.0 
       36.8974590000        10.6698284372
s   1 1.0 
       16.3988710000         5.8079190473
s   1 1.0 
        7.2883870000         3.1614306601
s   1 1.0 
        3.2392830000         1.7208648389
s   1 1.0 
        1.4396810000         0.9367200088
s   1 1.0 
        0.6398580000         0.5098856569
s   1 1.0 
        0.2843820000         0.2775470850
s   1 1.0 
        0.1263920000         0.1510774973
s   1 1.0 
        0.0561740000         0.0822359293
s   1 1.0 
        0.0249660000         0.0447632713
p   5 1.0 
    19323.3677850000      4822.9024605813
     7729.3471140000      1785.4667582687
     3091.7388460000      2818.2407679143
     1236.6955380000      2630.9996712709
      494.6782150000      2452.2890501058
p   1 1.0 
      197.8712860000      1057.8365251009
p   1 1.0 
       79.1485140000       336.5065675676
p   1 1.0 
       31.6594060000       107.0455309803
p   1 1.0 
       12.6637620000        34.0520696291
p   1 1.0 
        5.0655050000        10.8322462266
p   1 1.0 
        2.0262020000         3.4458273403
p   1 1.0 
        0.8104810000         1.0961465862
p   1 1.0 
        0.3241920000         0.3486927800
p   1 1.0 
        0.1296770000         0.1109222783
p   1 1.0 
        0.0518710000         0.0352854665
p   1 1.0 
        0.0207480000         0.0112243290
d   4 1.0 
     1430.5278870000      7824.3378881590
      520.1919590000      7307.3728048244
      189.1607120000      6842.4164092826
       68.7857140000      3759.1188941727
d   1 1.0 
       25.0129870000       797.5534701543
d   1 1.0 
        9.0956320000       135.8087103594
d   1 1.0 
        3.3075020000        23.1257212041
d   1 1.0 
        1.2027280000         3.9378853841
d   1 1.0 
        0.4373560000         0.6705504976
d   1 1.0 
        0.1590380000         0.1141817430
d   1 1.0 
        0.0578320000         0.0194430527
d   1 1.0 
        0.0210300000         0.0033108447
f   4 1.0 
       46.7781990000      3161.2713943715
       15.5927330000       939.9878603884
        5.1975780000       122.7894475198
        1.7325260000         7.1830685073
f   1 1.0 
        0.5775090000         1.6577051316
f   1 1.0 
        0.1925030000         0.1399537239

  2 0
s   6 1.0 
    35479.1004410000         1.9229128581
     5318.4728983000         2.2734773358
     1210.4810975000         3.4747482552
      342.8551814000         5.2879612972
      112.0194318100         7.1666332516
       40.7147402500         7.7556346254
s   1 1.0 
       16.0396781100         5.7122450312
s   1 1.0 
        6.5038186700         2.9025947842
s   1 1.0 
        1.5440477500         0.9872011154
s   1 1.0 
        0.6122345300        -0.4932856223
s   1 1.0 
        0.2402798000         0.2445952611
p   4 1.0 
       80.2339004800         4.2755032106
       18.5940107400         4.7314752302
        5.6867902700         4.0864798013
        1.9511006300         2.2989954518
p   1 1.0 
        0.6697021100         0.8635593126
p   1 1.0 
        0.2165130000         0.2105208234
d   1 1.0 
        3.1070000000        20.7284714039
d   1 1.0 
        0.8550000000         2.1672588463
f   1 1.0 
        1.9170000000        24.6547062912

[5D]
[7F]
[9G]
[MO]
 Sym=     1a
 Ene= -2.33437837121103E+03
 Spin= Alpha
 Occup= 2.000000
  1      -0.099534853782
  2      -0.106648229186
  3      -0.179819776261
  4      -0.301237524069
  5      -0.330325859502
  6      -0.163843147744
  7      -0.008517780435
  8      -0.003467284588
  9       0.002520311782
 10      -0.001670706268
 11       0.001119265351
 12      -0.000746429253
 13       0.000490367873
 14      -0.000319759496
 15       0.000206560137
 16      -0.000125917607
 17       0.000051057798
 18      -0.000013327413
 19       0.000000043556
 20      -0.000000096309
 21      -0.000000027583
 22       0.000000094619
 23      -0.000000209217
 24      -0.000000059922
 25      -0.000000086143
 26       0.000000190475
 27       0.000000054554
 28       0.000000163218
 29      -0.000000360900
 30      -0.000000103364
 31      -0.000000287243
 32       0.000000635139
 33       0.000000181908
 34       0.000000494242
 35      -0.000001092846
 36      -0.000000312998
 37      -0.000000883101
 38       0.000001952672
 39       0.000000559258
 40       0.000001552544
 41      -0.000003432916
 42      -0.000000983209
 43      -0.000002569746
 44       0.000005682109
 45       0.000001627393
 46       0.000006003091
 47      -0.000013273767
 48      -0.000003801693
 49      -0.000001135243
 50       0.000002510199
 51       0.000000718937
 52       0.000000174561
 53      -0.000000385982
 54      -0.000000110548
 55       0.000000004465
 56       0.000000001926
 57      -0.000000004258
 58       0.000000005913
 59       0.000000006723
 60      -0.000000071059
 61      -0.000000030644
 62       0.000000067758
 63      -0.000000094096
 64      -0.000000106994
 65       0.000000176119
 66       0.000000075950
 67      -0.000000167937
 68       0.000000233215
 69       0.000000265183
 70      -0.000000368347
 71      -0.000000158847
 72       0.000000351236
 73      -0.000000487763
 74      -0.000000554622
 75       0.000000727097
 76       0.000000313556
 77      -0.000000693321
 78       0.000000962818
 79       0.000001094793
 80      -0.000001230372
 81      -0.000000530590
 82       0.000001173217
 83      -0.000001629252
 84      -0.000001852577
 85       0.000003428068
 86       0.000001478332
 87      -0.000003268823
 88       0.000004539428
 89       0.000005161658
 90      -0.000000397888
 91      -0.000000171587
 92       0.000000379405
 93      -0.000000526881
 94      -0.000000599102
 95       0.000000011594
 96       0.000000005000
 97      -0.000000011055
 98       0.000000015352
 99       0.000000017456
100       0.000000071803
101      -0.000000035281
102       0.000000078011
103       0.000000064129
104       0.000000072919
105       0.000000145280
106      -0.000000044403
107      -0.000000392274
108       0.000000192745
109      -0.000000426189
110      -0.000000350346
111      -0.000000398369
112      -0.000000793691
113       0.000000242581
114       0.000001126115
115      -0.000000553320
116       0.000001223476
117       0.000001005750
118       0.000001143610
119       0.000002278474
120      -0.000000696386
121      -0.000000152407
122       0.000000703150
123      -0.000001342643
124       0.000003971810
125       0.000007743869
126       0.000016994969
127       0.000000291363
128      -0.000000644249
129      -0.000000184517
130      -0.000001218415
131       0.000002694105
132       0.000000771609
133       0.000003353235
134      -0.000007414525
135      -0.000002123568
136      -0.000000094910
137      -0.000000040929
138       0.000000090501
139      -0.000000125680
140      -0.000000142907
141       0.000000686226
142       0.000000295931
143      -0.000000654349
144       0.000000908697
145       0.000001033254
146      -0.000000137616
147       0.000000067618
148      -0.000000149514
149      -0.000000122907
150      -0.000000139754
151      -0.000000278439
152       0.000000085101
 Sym=     1a
 Ene= -4.02759856338447E+02
 Spin= Alpha
 Occup= 2.000000
  1       0.038359086440
  2       0.045559604260
  3       0.077514911219
  4       0.153224082586
  5       0.200795161707
  6       0.059024565307
  7      -0.497425369304
  8      -0.578449285274
  9      -0.079143043459
 10      -0.005082469639
 11       0.004427258274
 12      -0.003094300666
 13       0.002155686010
 14      -0.001445569904
 15       0.000940658667
 16      -0.000576522418
 17       0.000234208132
 18      -0.000061198047
 19       0.000005976536
 20      -0.000013215050
 21      -0.000003784877
 22       0.000008610876
 23      -0.000019039984
 24      -0.000005453176
 25       0.000006338476
 26      -0.000014015353
 27      -0.000004014089
 28       0.000000270428
 29      -0.000000597959
 30      -0.000000171259
 31      -0.000000627031
 32       0.000001386464
 33       0.000000397092
 34       0.000001963201
 35      -0.000004340941
 36      -0.000001243274
 37      -0.000003863282
 38       0.000008542314
 39       0.000002446575
 40       0.000006989090
 41      -0.000015453963
 42      -0.000004426116
 43      -0.000011794721
 44       0.000026079961
 45       0.000007469471
 46       0.000027572273
 47      -0.000060966578
 48      -0.000017461226
 49      -0.000005212152
 50       0.000011524877
 51       0.000003300800
 52       0.000000801285
 53      -0.000001771766
 54      -0.000000507445
 55      -0.000001156735
 56      -0.000000498835
 57       0.000001103001
 58      -0.000001531743
 59      -0.000001741702
 60       0.000000117121
 61       0.000000050508
 62      -0.000000111681
 63       0.000000155092
 64       0.000000176350
 65       0.000000442777
 66       0.000000190945
 67      -0.000000422209
 68       0.000000586323
 69       0.000000666691
 70      -0.000001448260
 71      -0.000000624553
 72       0.000001380983
 73      -0.000001917777
 74      -0.000002180652
 75       0.000003267904
 76       0.000001409263
 77      -0.000003116099
 78       0.000004327340
 79       0.000004920498
 80      -0.000005639355
 81      -0.000002431936
 82       0.000005377388
 83      -0.000007467602
 84      -0.000008491204
 85       0.000015742330
 86       0.000006788780
 87      -0.000015011047
 88       0.000020845905
 89       0.000023703302
 90      -0.000001825362
 91      -0.000000787176
 92       0.000001740568
 93      -0.000002417134
 94      -0.000002748456
 95       0.000000052219
 96       0.000000022519
 97      -0.000000049794
 98       0.000000069149
 99       0.000000078627
100       0.000000360955
101      -0.000000177356
102       0.000000392162
103       0.000000322374
104       0.000000366562
105       0.000000730321
106      -0.000000223213
107      -0.000001849160
108       0.000000908590
109      -0.000002009033
110      -0.000001651512
111      -0.000001877889
112      -0.000003741415
113       0.000001143515
114       0.000005194081
115      -0.000002552126
116       0.000005643147
117       0.000004638910
118       0.000005274776
119       0.000010509209
120      -0.000003212004
121      -0.000000605133
122       0.000003003158
123      -0.000005985132
124       0.000018137426
125       0.000035342098
126       0.000077975818
127       0.000001362045
128      -0.000003011692
129      -0.000000862568
130      -0.000005570970
131       0.000012318279
132       0.000003528036
133       0.000015387739
134      -0.000034024682
135      -0.000009744891
136      -0.000000462671
137      -0.000000199524
138       0.000000441178
139      -0.000000612666
140      -0.000000696645
141       0.000003192524
142       0.000001376756
143      -0.000003044221
144       0.000004227522
145       0.000004806998
146      -0.000000650123
147       0.000000319440
148      -0.000000706331
149      -0.000000580634
150      -0.000000660223
151      -0.000001315397
152       0.000000402034
 Sym=     1a
 Ene= -3.55485793602526E+02
 Spin= Alpha
 Occup= 2.000000
  1      -0.000000000000
  2      -0.000000000000
  3      -0.000000000000
  4      -0.000000000001
  5      -0.000000000000
  6      -0.000000000000
  7       0.000000000001
  8       0.000000000002
  9       0.000000000000
 10       0.000000000000
 11      -0.000000000000
 12       0.000000000000
 13      -0.000000000002
 14       0.000000000003
 15      -0.000000000003
 16       0.000000000002
 17       0.000000000001
 18      -0.000000000000
 19      -0.041497205625
 20       0.082291139692
 21      -0.352849357314
 22      -0.054556914765
 23       0.108189229288
 24      -0.463895629170
 25      -0.033861531415
 26       0.067149196431
 27      -0.287923473821
 28      -0.001479258829
 29       0.002933448002
 30      -0.012578088552
 31      -0.000658611947
 32       0.001306062104
 33      -0.005600155446
 34       0.000447131219
 35      -0.000886684705
 36       0.003801941861
 37      -0.000267283604
 38       0.000530037435
 39      -0.002272703591
 40       0.000159196075
 41      -0.000315694183
 42       0.001353638933
 43      -0.000092395558
 44       0.000183225248
 45      -0.000785636367
 46       0.000050958097
 47      -0.000101052584
 48       0.000433295012
 49      -0.000024259796
 50       0.000048108451
 51      -0.000206280242
 52       0.000007726085
 53      -0.000015321233
 54       0.000065694644
 55      -0.000002371027
 56       0.000002000600
 57      -0.000004460360
 58      -0.000000860481
 59      -0.000001066236
 60       0.000000623941
 61      -0.000000526463
 62       0.000001173754
 63       0.000000226438
 64       0.000000280582
 65      -0.000000057742
 66       0.000000048721
 67      -0.000000108623
 68      -0.000000020956
 69      -0.000000025966
 70      -0.000000230991
 71       0.000000194903
 72      -0.000000434540
 73      -0.000000083830
 74      -0.000000103875
 75       0.000000649647
 76      -0.000000548152
 77       0.000001222112
 78       0.000000235766
 79       0.000000292142
 80      -0.000000904844
 81       0.000000763481
 82      -0.000001702188
 83      -0.000000328381
 84      -0.000000406902
 85       0.000000504521
 86      -0.000000425700
 87       0.000000949103
 88       0.000000183098
 89       0.000000226879
 90       0.000001426279
 91      -0.000001203451
 92       0.000002683107
 93       0.000000517618
 94       0.000000641389
 95      -0.000000412287
 96       0.000000347875
 97      -0.000000775591
 98      -0.000000149625
 99      -0.000000185403
100      -0.000000247481
101      -0.000000161203
102       0.000000353734
103      -0.000000252393
104      -0.000000283153
105       0.000000135952
106      -0.000000035336
107       0.000000864698
108       0.000000563241
109      -0.000001235943
110       0.000000881860
111       0.000000989334
112      -0.000000475017
113       0.000000123462
114      -0.000000981885
115      -0.000000639573
116       0.000001403443
117      -0.000001001372
118      -0.000001123413
119       0.000000539393
120      -0.000000140195
121       0.000000000000
122      -0.000000000000
123       0.000000000001
124      -0.000000000002
125      -0.000000000002
126      -0.000000000002
127      -0.000000200631
128       0.000000397861
129      -0.000001705951
130       0.000000393231
131      -0.000000779797
132       0.000003343619
133      -0.000000947025
134       0.000001878000
135      -0.000008052516
136       0.000001233180
137      -0.000001040519
138       0.000002319849
139       0.000000447539
140       0.000000554553
141      -0.000003700283
142       0.000003122184
143      -0.000006960945
144      -0.000001342888
145      -0.000001663995
146      -0.000001985793
147      -0.000001293493
148       0.000002838365
149      -0.000002025206
150      -0.000002272024
151       0.000001090887
152      -0.000000283534
 Sym=     1a
 Ene= -3.55485793602474E+02
 Spin= Alpha
 Occup= 2.000000
  1       0.000000000000
  2       0.000000000000
  3      -0.000000000000
  4       0.000000000000
  5      -0.000000000000
  6       0.000000000000
  7      -0.000000000000
  8       0.000000000001
  9      -0.000000000002
 10       0.000000000002
 11      -0.000000000001
 12       0.000000000000
 13       0.000000000001
 14      -0.000000000003
 15       0.000000000003
 16      -0.000000000002
 17      -0.000000000000
 18       0.000000000000
 19       0.331860306500
 20       0.151165511105
 21      -0.003774112547
 22       0.436301051679
 23       0.198739259204
 24      -0.004961874743
 25       0.270796503636
 26       0.123350370852
 27      -0.003079658706
 28       0.011829887841
 29       0.005388625897
 30      -0.000134536512
 31       0.005267033266
 32       0.002399183512
 33      -0.000059899831
 34      -0.003575785429
 35      -0.001628804113
 36       0.000040665956
 37       0.002137513061
 38       0.000973657435
 39      -0.000024309068
 40      -0.001273118461
 41      -0.000579917512
 42       0.000014478659
 43       0.000738903216
 44       0.000336577412
 45      -0.000008403246
 46      -0.000407520694
 47      -0.000185629536
 48       0.000004634567
 49       0.000194009774
 50       0.000088373289
 51      -0.000002206394
 52      -0.000061786834
 53      -0.000028144488
 54       0.000000702677
 55      -0.000000025361
 56       0.000001310605
 57       0.000000535338
 58      -0.000004080665
 59       0.000003569248
 60       0.000000006674
 61      -0.000000344889
 62      -0.000000140875
 63       0.000001073836
 64      -0.000000939256
 65      -0.000000000618
 66       0.000000031917
 67       0.000000013037
 68      -0.000000099377
 69       0.000000086922
 70      -0.000000002471
 71       0.000000127682
 72       0.000000052154
 73      -0.000000397549
 74       0.000000347725
 75       0.000000006949
 76      -0.000000359098
 77      -0.000000146680
 78       0.000001118078
 79      -0.000000977952
 80      -0.000000009679
 81       0.000000500160
 82       0.000000204299
 83      -0.000001557287
 84       0.000001362116
 85       0.000000005397
 86      -0.000000278878
 87      -0.000000113913
 88       0.000000868310
 89      -0.000000759486
 90       0.000000015256
 91      -0.000000788388
 92      -0.000000322030
 93       0.000002454703
 94      -0.000002147063
 95      -0.000000004410
 96       0.000000227895
 97       0.000000093087
 98      -0.000000709568
 99       0.000000620640
100      -0.000000002647
101       0.000000093427
102       0.000000046816
103       0.000000175180
104      -0.000000159465
105      -0.000000161022
106      -0.000000531975
107       0.000000009249
108      -0.000000326432
109      -0.000000163574
110      -0.000000612077
111       0.000000557169
112       0.000000562608
113       0.000001858719
114      -0.000000010502
115       0.000000370671
116       0.000000185742
117       0.000000695028
118      -0.000000632679
119      -0.000000638855
120      -0.000002110620
121      -0.000000000000
122       0.000000000001
123      -0.000000000001
124       0.000000000002
125       0.000000000002
126       0.000000000003
127       0.000001604473
128       0.000000730852
129      -0.000000018247
130      -0.000003144727
131      -0.000001432451
132       0.000000035764
133       0.000007573517
134       0.000003449807
135      -0.000000086131
136       0.000000013190
137      -0.000000681650
138      -0.000000278431
139       0.000002122368
140      -0.000001856379
141      -0.000000039578
142       0.000002045362
143       0.000000835461
144      -0.000006368383
145       0.000005570255
146      -0.000000021240
147       0.000000749657
148       0.000000375651
149       0.000001405646
150      -0.000001279550
151      -0.000001292042
152      -0.000004268581
 Sym=     1a
 Ene= -3.55485098115683E+02
 Spin= Alpha
 Occup= 2.000000
  1       0.000001758534
  2       0.000002057379
  3       0.000003693950
  4       0.000006667022
  5       0.000010308736
  6      -0.000000124292
  7      -0.000019252589
  8      -0.000031980941
  9       0.000009547172
 10      -0.000029208630
 11       0.000051847295
 12      -0.000083592899
 13       0.000133657834
 14      -0.000190525013
 15       0.000203114922
 16      -0.000139439674
 17      -0.000002604190
 18       0.000005160900
 19      -0.145407830368
 20       0.321519285340
 21       0.092085209697
 22      -0.191168393035
 23       0.422702993042
 24       0.121064880176
 25      -0.118651942734
 26       0.262357864329
 27       0.075140994815
 28      -0.005180928539
 29       0.011455837262
 30       0.003281026130
 31      -0.002312809256
 32       0.005113980295
 33       0.001464677142
 34       0.001577106393
 35      -0.003487227058
 36      -0.000998764459
 37      -0.000955838314
 38       0.002113506894
 39       0.000605322091
 40       0.000591760431
 41      -0.001308474179
 42      -0.000374755498
 43      -0.000368746991
 44       0.000815356846
 45       0.000233523495
 46       0.000226787530
 47      -0.000501462439
 48      -0.000143622100
 49      -0.000091329567
 50       0.000201943852
 51       0.000057838030
 52       0.000027694090
 53      -0.000061235932
 54      -0.000017538368
 55      -0.000002689138
 56      -0.000001159674
 57       0.000002564219
 58      -0.000003560941
 59      -0.000004049048
 60      -0.000000173100
 61      -0.000000074648
 62       0.000000165059
 63      -0.000000229217
 64      -0.000000260637
 65       0.000002934536
 66       0.000001265500
 67      -0.000002798217
 68       0.000003885896
 69       0.000004418545
 70      -0.000007469242
 71      -0.000003221063
 72       0.000007122271
 73      -0.000009890728
 74      -0.000011246473
 75       0.000015835255
 76       0.000006828854
 77      -0.000015099656
 78       0.000020968957
 79       0.000023843220
 80      -0.000024483275
 81      -0.000010558257
 82       0.000023345947
 83      -0.000032420616
 84      -0.000036864584
 85       0.000024713326
 86       0.000010657466
 87      -0.000023565312
 88       0.000032725249
 89       0.000037210974
 90       0.000001445964
 91       0.000000623563
 92      -0.000001378794
 93       0.000001914737
 94       0.000002177194
 95      -0.000001289838
 96      -0.000000556234
 97       0.000001229921
 98      -0.000001707996
 99      -0.000001942115
100       0.000001910780
101      -0.000000938867
102       0.000002075981
103       0.000001706546
104       0.000001940466
105       0.000003866091
106      -0.000001181621
107      -0.000009524750
108       0.000004680012
109      -0.000010348234
110      -0.000008506695
111      -0.000009672727
112      -0.000019271473
113       0.000005890076
114       0.000008268352
115      -0.000004062677
116       0.000008983211
117       0.000007384586
118       0.000008396809
119       0.000016729396
120      -0.000005113123
121      -0.000002129062
122       0.000010783536
123      -0.000021651187
124       0.000063829278
125       0.000094690969
126       0.000130300377
127       0.000007420864
128      -0.000016408684
129      -0.000004699554
130      -0.000028482076
131       0.000062978295
132       0.000018037394
133       0.000022114170
134      -0.000048897866
135      -0.000014004668
136      -0.000004027243
137      -0.000001736723
138       0.000003840165
139      -0.000005332853
140      -0.000006063839
141       0.000020096683
142       0.000008666567
143      -0.000019163127
144       0.000026611916
145       0.000030259672
146      -0.000002967453
147       0.000001458066
148      -0.000003224010
149      -0.000002650276
150      -0.000003013555
151      -0.000006004061
152       0.000001835064
 Sym=     1a
 Ene= -9.35638410437164E+01
 Spin= Alpha
 Occup= 2.000000
  1      -0.018196237325
  2      -0.021937869397
  3      -0.037594364234
  4      -0.075819193989
  5      -0.104345239471
  6      -0.023994043395
  7       0.396874354885
  8       0.682394019317
  9      -0.526119102514
 10      -0.866681106718
 11      -0.015667355715
 12      -0.039412917354
 13       0.026303749192
 14      -0.017612091470
 15       0.011608859925
 16      -0.007139231488
 17       0.002909876712
 18      -0.000761679384
 19      -0.000015257899
 20       0.000033737584
 21       0.000009662665
 22      -0.000023044475
 23       0.000050954912
 24       0.000014593820
 25      -0.000001746103
 26       0.000003860904
 27       0.000001105788
 28       0.000065002622
 29      -0.000143730888
 30      -0.000041165467
 31       0.000013909863
 32      -0.000030756862
 33      -0.000008808967
 34       0.000023609173
 35      -0.000052203557
 36      -0.000014951439
 37      -0.000045097712
 38       0.000099718053
 39       0.000028559901
 40       0.000085302988
 41      -0.000188618162
 42      -0.000054021471
 43      -0.000144368478
 44       0.000319221137
 45       0.000091427014
 46       0.000340615253
 47      -0.000753153247
 48      -0.000215707999
 49      -0.000064650045
 50       0.000142951295
 51       0.000040942183
 52       0.000009934864
 53      -0.000021967528
 54      -0.000006291643
 55      -0.000004768838
 56      -0.000002056531
 57       0.000004547310
 58      -0.000006314868
 59      -0.000007180461
 60      -0.000014670519
 61      -0.000006326568
 62       0.000013989025
 63      -0.000019426621
 64      -0.000022089470
 65       0.000005471249
 66       0.000002359442
 67      -0.000005217092
 68       0.000007244997
 69       0.000008238086
 70      -0.000019668688
 71      -0.000008481997
 72       0.000018755014
 73      -0.000026045168
 74      -0.000029615238
 75       0.000039499333
 76       0.000017033837
 77      -0.000037664461
 78       0.000052304797
 79       0.000059474335
 80      -0.000069083482
 81      -0.000029791814
 82       0.000065874329
 83      -0.000091479962
 84      -0.000104019329
 85       0.000194880698
 86       0.000084041066
 87      -0.000185827856
 88       0.000258059934
 89       0.000293432801
 90      -0.000022807910
 91      -0.000009835766
 92       0.000021748408
 93      -0.000030202107
 94      -0.000034341978
 95       0.000000696175
 96       0.000000300221
 97      -0.000000663836
 98       0.000000921872
 99       0.000001048234
100       0.000005476144
101      -0.000002690718
102       0.000005949596
103       0.000004890825
104       0.000005561222
105       0.000011079909
106      -0.000003386430
107      -0.000022303140
108       0.000010958709
109      -0.000024231407
110      -0.000019919262
111      -0.000022649641
112      -0.000045126049
113       0.000013792194
114       0.000064333716
115      -0.000031610547
116       0.000069895831
117       0.000057457388
118       0.000065333203
119       0.000130166714
120      -0.000039783773
121      -0.000004834909
122       0.000030062054
123      -0.000065942345
124       0.000216439623
125       0.000429336414
126       0.000959933621
127       0.000016506961
128      -0.000036499456
129      -0.000010453682
130      -0.000068630900
131       0.000151753582
132       0.000043463215
133       0.000190072184
134      -0.000420279129
135      -0.000120370683
136      -0.000005888513
137      -0.000002539383
138       0.000005614971
139      -0.000007797535
140      -0.000008866362
141       0.000039832904
142       0.000017177687
143      -0.000037982536
144       0.000052746509
145       0.000059976595
146      -0.000008147050
147       0.000004003075
148      -0.000008851421
149      -0.000007276250
150      -0.000008273622
151      -0.000016483964
152       0.000005038110
 Sym=     1a
 Ene= -7.89937128898568E+01
 Spin= Alpha
 Occup= 2.000000
  1      -0.000000000000
  2      -0.000000000000
  3      -0.000000000000
  4      -0.000000000001
  5      -0.000000000000
  6      -0.000000000000
  7       0.000000000003
  8       0.000000000004
  9      -0.000000000004
 10      -0.000000000002
 11      -0.000000000010
 12       0.000000000018
 13      -0.000000000015
 14       0.000000000009
 15      -0.000000000008
 16       0.000000000008
 17      -0.000000000007
 18       0.000000000001
 19      -0.025871428759
 20       0.043226120495
 21      -0.191778229557
 22      -0.038590878253
 23       0.064477844225
 24      -0.286064228517
 25       0.002183692218
 26      -0.003648524550
 27       0.016187147279
 28       0.096161723652
 29      -0.160667518301
 30       0.712822058842
 31       0.043701651338
 32      -0.073016951022
 33       0.323949071404
 34      -0.002260600298
 35       0.003777022975
 36      -0.016757247036
 37       0.001950587301
 38      -0.003259051617
 39       0.014459200662
 40      -0.001112441867
 41       0.001858673778
 42      -0.008246244722
 43       0.000642473754
 44      -0.001073448558
 45       0.004762492300
 46      -0.000354586482
 47       0.000592444972
 48      -0.002628458183
 49       0.000169096667
 50      -0.000282527606
 51       0.001253469997
 52      -0.000053902856
 53       0.000090061176
 54      -0.000399567975
 55       0.000022780135
 56      -0.000018993717
 57       0.000042956743
 58       0.000007548817
 59       0.000010875935
 60       0.000024150155
 61      -0.000020135994
 62       0.000045540178
 63       0.000008002801
 64       0.000011530009
 65       0.000004670579
 66      -0.000003894251
 67       0.000008807351
 68       0.000001547721
 69       0.000002229873
 70       0.000002774193
 71      -0.000002313074
 72       0.000005231324
 73       0.000000919304
 74       0.000001324484
 75      -0.000004731236
 76       0.000003944823
 77      -0.000008921735
 78      -0.000001567823
 79      -0.000002258833
 80       0.000005734113
 81      -0.000004781007
 82       0.000010812874
 83       0.000001900151
 84       0.000002737635
 85      -0.000003460529
 86       0.000002885332
 87      -0.000006525555
 88      -0.000001146739
 89      -0.000001652156
 90      -0.000008642744
 91       0.000007206171
 92      -0.000016297703
 93      -0.000002864002
 94      -0.000004126305
 95       0.000002487506
 96      -0.000002074040
 97       0.000004690713
 98       0.000000824302
 99       0.000001187610
100       0.000005038880
101       0.000003317772