[Molden Format]
[Title]
 Molden file created by orca_2mkl for BaseName=/home/smirnovaanastasia2304_2125/_scratch/O2_cc/Nd_O2_cc

[Atoms] AU
Nd   1  60         -0.2327632371        -0.7194300775        -1.7081725853 
O    2   8         -1.6570422653         2.9477705682        -0.5098518904 
O    3   8          3.0647427262        -0.5667307573        -0.6599622858 
[GTO]
  1 0
s   6 1.0 
   994735.7959840000      1863.9135210443
   442104.7982150000      -485.8456998776
   196491.0214290000      1100.1532089676
    87329.3428570000       270.9095245490
    38813.0412700000       691.0933671839
    17250.2405640000       543.4710696949
s   1 1.0 
     7666.7735840000       583.9418085366
s   1 1.0 
     3407.4549260000       317.8576600717
s   1 1.0 
     1514.4244120000       173.0197951516
s   1 1.0 
      673.0775160000        94.1800474027
s   1 1.0 
      299.1455630000        51.2651245068
s   1 1.0 
      132.9535830000        27.9051991663
s   1 1.0 
       59.0904820000        15.1896666015
s   1 1.0 
       26.2624360000         8.2682071254
s   1 1.0 
       11.6721940000         4.5006419631
s   1 1.0 
        5.1876420000         2.4498392620
s   1 1.0 
        2.3056190000         1.3335237321
s   1 1.0 
        1.0247190000         0.7258780834
s   1 1.0 
        0.4554310000         0.3951181991
s   1 1.0 
        0.2024140000         0.2150752828
s   1 1.0 
        0.0899620000         0.1170723723
s   1 1.0 
        0.0399830000         0.0637259950
s   1 1.0 
        0.0177700000         0.0346877127
p   5 1.0 
    13410.3010510000      2401.5364004241
     5364.1204200000      1024.5588215214
     2145.6481680000      1626.1321344023
      858.2592670000      1638.1793695256
      343.3037070000      1573.4149290153
p   1 1.0 
      137.3214830000       670.0592301905
p   1 1.0 
       54.9285930000       213.1513959541
p   1 1.0 
       21.9714370000        67.8052256278
p   1 1.0 
        8.7885750000        21.5694050932
p   1 1.0 
        3.5154300000         6.8614066030
p   1 1.0 
        1.4061720000         2.1826703318
p   1 1.0 
        0.5624690000         0.6943258388
p   1 1.0 
        0.2249880000         0.2208712972
p   1 1.0 
        0.0899950000         0.0702607958
p   1 1.0 
        0.0359980000         0.0223505417
p   1 1.0 
        0.0143990000         0.0071097692
d   4 1.0 
      918.9318400000      3603.5190663488
      334.1570330000      3495.8915352391
      121.5116480000      3244.5867394900
       44.1860540000      1718.4301569526
d   1 1.0 
       16.0676560000       367.6097339451
d   1 1.0 
        5.8427840000        62.5971828323
d   1 1.0 
        2.1246490000        10.6591524025
d   1 1.0 
        0.7726000000         1.8150592864
d   1 1.0 
        0.2809450000         0.3090703695
d   1 1.0 
        0.1021620000         0.0526291686
d   1 1.0 
        0.0371500000         0.0089618571
d   1 1.0 
        0.0135090000         0.0015260216
f   4 1.0 
       23.0540210000       712.1519496894
        7.6846740000       187.9678783496
        2.5615580000        24.4339048979
        0.8538530000         1.5279715144
f   1 1.0 
        0.2846180000         0.3373575197
f   1 1.0 
        0.0948730000         0.0284820343

  2 0
s   6 1.0 
    27032.3826310000         1.4645050749
     4052.3871392000         1.8244031008
      922.3272271000         2.8547160967
      261.2407098900         4.3654874290
       85.3546413500         5.8940772662
       31.0350352400         6.2963020147
s   1 1.0 
       12.2608607300         4.6698272139
s   1 1.0 
        4.9987076000         2.3826123703
s   1 1.0 
        1.1703108200         0.8019291632
s   1 1.0 
        0.4647474100        -0.4011648063
s   1 1.0 
        0.1850453600         0.2010799377
p   4 1.0 
       63.2749548000         3.0898340730
       14.6270493800         3.3923831935
        4.4501223500         2.9482801524
        1.5275799600         1.7113350234
p   1 1.0 
        0.5293511800         0.6436057935
p   1 1.0 
        0.1747842100         0.1610897223
d   1 1.0 
        2.3140000000        12.3767310624
d   1 1.0 
        0.6450000000         1.3234257612
f   1 1.0 
        1.4280000000        12.7097950062

  3 0
s   6 1.0 
    27032.3826310000         1.4645050749
     4052.3871392000         1.8244031008
      922.3272271000         2.8547160967
      261.2407098900         4.3654874290
       85.3546413500         5.8940772662
       31.0350352400         6.2963020147
s   1 1.0 
       12.2608607300         4.6698272139
s   1 1.0 
        4.9987076000         2.3826123703
s   1 1.0 
        1.1703108200         0.8019291632
s   1 1.0 
        0.4647474100        -0.4011648063
s   1 1.0 
        0.1850453600         0.2010799377
p   4 1.0 
       63.2749548000         3.0898340730
       14.6270493800         3.3923831935
        4.4501223500         2.9482801524
        1.5275799600         1.7113350234
p   1 1.0 
        0.5293511800         0.6436057935
p   1 1.0 
        0.1747842100         0.1610897223
d   1 1.0 
        2.3140000000        12.3767310624
d   1 1.0 
        0.6450000000         1.3234257612
f   1 1.0 
        1.4280000000        12.7097950062

[5D]
[7F]
[9G]
[MO]
 Sym=     1a
 Ene= -1.60728665987521E+03
 Spin= Alpha
 Occup= 1.000000
  1      -0.080655330014
  2      -0.093496151788
  3      -0.170836566646
  4      -0.298998974104
  5      -0.346280146447
  6      -0.176839738841
  7      -0.011065952886
  8      -0.003124367760
  9       0.002270976687
 10      -0.001493532021
 11       0.001008380492
 12      -0.000677146985
 13       0.000447533129
 14      -0.000293297213
 15       0.000187243709
 16      -0.000112949194
 17       0.000044138421
 18      -0.000011724256
 19       0.000000216096
 20       0.000000749312
 21       0.000000395666
 22      -0.000000746356
 23      -0.000000626393
 24      -0.000000499002
 25       0.000000434041
 26       0.000000494327
 27       0.000000347711
 28      -0.000000560980
 29      -0.000000530825
 30      -0.000000401604
 31       0.000000794474
 32       0.000000713574
 33       0.000000551870
 34      -0.000001182168
 35      -0.000001111713
 36      -0.000000843255
 37       0.000001792654
 38       0.000001932973
 39       0.000001388034
 40      -0.000001866351
 41      -0.000003312785
 42      -0.000002020203
 43      -0.000000226413
 44       0.000004584902
 45       0.000001960439
 46      -0.000001805638
 47      -0.000007952947
 48      -0.000004054361
 49      -0.000000068941
 50       0.000001125390
 51       0.000000477226
 52       0.000000056976
 53      -0.000000201487
 54      -0.000000072168
 55       0.000000029670
 56      -0.000000015197
 57      -0.000000013359
 58      -0.000000018429
 59       0.000000019603
 60      -0.000000116257
 61       0.000000043304
 62       0.000000065638
 63       0.000000034913
 64      -0.000000089154
 65       0.000000329366
 66      -0.000000163606
 67      -0.000000177778
 68      -0.000000157721
 69       0.000000205336
 70      -0.000000666458
 71       0.000000319283
 72       0.000000366389
 73       0.000000296241
 74      -0.000000426323
 75       0.000001223248
 76      -0.000000443374
 77      -0.000000748191
 78      -0.000000273131
 79       0.000000917056
 80      -0.000001373598
 81      -0.000000132911
 82       0.000001151542
 83      -0.000000857376
 84      -0.000001639695
 85       0.000003254050
 86      -0.000000320320
 87      -0.000002354509
 88       0.000000775607
 89       0.000003308447
 90      -0.000000184565
 91      -0.000000114676
 92       0.000000276950
 93      -0.000000397341
 94      -0.000000266496
 95       0.000000011506
 96       0.000000045412
 97      -0.000000051729
 98       0.000000117035
 99       0.000000043684
100       0.000000164032
101       0.000000064709
102       0.000000058954
103      -0.000000072411
104       0.000000057812
105       0.000000294992
106      -0.000000038119
107      -0.000000572214
108      -0.000000048278
109      -0.000000344840
110      -0.000000173493
111      -0.000000432581
112      -0.000001056055
113       0.000000381676
114       0.000001405100
115       0.000000194759
116       0.000000805468
117       0.000000209810
118       0.000001002863
119       0.000002658045
120      -0.000000815085
121      -0.000000127383
122       0.000000594129
123      -0.000001136142
124       0.000003620127
125       0.000007349820
126       0.000012233123
127       0.000000196558
128      -0.000000624448
129      -0.000000217720
130      -0.000001040271
131       0.000003075751
132       0.000001050943
133       0.000001034052
134      -0.000003731991
135      -0.000001343029
136      -0.000000066545
137      -0.000000031663
138       0.000000089063
139      -0.000000117034
140      -0.000000090554
141       0.000000623607
142       0.000000295103
143      -0.000000776378
144       0.000001013901
145       0.000000883649
146      -0.000000030712
147       0.000000000728
148      -0.000000017168
149      -0.000000033229
150      -0.000000022644
151      -0.000000038727
152       0.000000038677
153       0.000000002095
154      -0.000000029821
155       0.000000117442
156       0.000000088575
157       0.000004674273
158       0.000010473995
159       0.000000588016
160      -0.000000083343
161       0.000000138015
162       0.000000631241
163       0.000000433524
164       0.000000379466
165      -0.000001931429
166      -0.000000889299
167      -0.000000967717
168       0.000000233829
169      -0.000000268604
170      -0.000000010199
171      -0.000000449972
172       0.000000024337
173      -0.000000771909
174       0.000000884554
175       0.000000023780
176       0.000001496682
177      -0.000000089403
178       0.000000651852
179       0.000000560220
180       0.000000016630
181      -0.000000900412
182      -0.000000059838
183       0.000001172707
184       0.000000114691
 Sym=     1a
 Ene= -2.64485889021590E+02
 Spin= Alpha
 Occup= 1.000000
  1      -0.029588597518
  2      -0.037647253861
  3      -0.069945270124
  4      -0.144395918486
  5      -0.206875670775
  6      -0.096535502048
  7       0.451504177823
  8       0.615365752948
  9       0.109978568042
 10       0.003668192816
 11      -0.003099856317
 12       0.002217748944
 13      -0.001630483643
 14       0.001117002921
 15      -0.000719932657
 16       0.000436238323
 17      -0.000171033489
 18       0.000045527066
 19       0.000036503308
 20       0.000000097168
 21       0.000010899282
 22       0.000051913545
 23      -0.000000934299
 24       0.000015026164
 25       0.000040604400
 26      -0.000001613735
 27       0.000011362308
 28       0.000001532686
 29      -0.000000827421
 30       0.000000089983
 31       0.000000397128
 32      -0.000001316306
 33      -0.000000464072
 34       0.000003392414
 35       0.000003751569
 36       0.000002668122
 37      -0.000006043096
 38      -0.000006994470
 39      -0.000004890671
 40       0.000006640256
 41       0.000012634184
 42       0.000007562555
 43       0.000000299919
 44      -0.000018106584
 45      -0.000007918840
 46       0.000006581726
 47       0.000030675246
 48       0.000015524204
 49       0.000000431848
 50      -0.000004292049
 51      -0.000001769822
 52      -0.000000268018
 53       0.000000764783
 54       0.000000258534
 55      -0.000002880755
 56       0.000001863553
 57       0.000001409979
 58       0.000002082198
 59      -0.000001334371
 60       0.000001771761
 61      -0.000001657981
 62      -0.000000795504
 63      -0.000001973692
 64       0.000000209963
 65      -0.000001497388
 66       0.000001049853
 67       0.000000774307
 68       0.000001119006
 69      -0.000000562839
 70       0.000002965699
 71      -0.000001735883
 72      -0.000001566282
 73      -0.000001772648
 74       0.000001534095
 75      -0.000004968890
 76       0.000001902322
 77       0.000003017336
 78       0.000001257293
 79      -0.000003609192
 80       0.000005769909
 81       0.000000156009
 82      -0.000004637845
 83       0.000002858084
 84       0.000006499120
 85      -0.000012609159
 86       0.000001223254
 87       0.000009134159
 88      -0.000003041021
 89      -0.000012836171
 90       0.000000700157
 91       0.000000447668
 92      -0.000001072559
 93       0.000001552475
 94       0.000001013180
 95      -0.000000042476
 96      -0.000000175563
 97       0.000000202126
 98      -0.000000456745
 99      -0.000000164298
100      -0.000000793656
101      -0.000000330821
102      -0.000000268394
103       0.000000289231
104      -0.000000290435
105      -0.000001388722
106       0.000000276219
107       0.000002557879
108       0.000000346761
109       0.000001433031
110       0.000000488743
111       0.000001757975
112       0.000004672851
113      -0.000001547463
114      -0.000005528622
115      -0.000000786112
116      -0.000003153062
117      -0.000000793476
118      -0.000003924555
119      -0.000010449333
120       0.000003196465
121       0.000000425234
122      -0.000002143728
123       0.000004312311
124      -0.000014087325
125      -0.000028372801
126      -0.000047124347
127      -0.000000786817
128       0.000002523832
129       0.000000882222
130       0.000004042026
131      -0.000012012136
132      -0.000004110537
133      -0.000003909975
134       0.000014273014
135       0.000005149732
136       0.000000293266
137       0.000000137303
138      -0.000000396959
139       0.000000519376
140       0.000000393364
141      -0.000002503991
142      -0.000001181489
143       0.000003142047
144      -0.000004101394
145      -0.000003528029
146       0.000000158835
147      -0.000000012360
148       0.000000096288
149       0.000000174259
150       0.000000123056
151       0.000000208803
152      -0.000000191884
153      -0.000000015588
154       0.000000190309
155      -0.000000527397
156      -0.000000508655
157      -0.000018401989
158      -0.000039765201
159      -0.000002243852
160       0.000000340261
161      -0.000000516833
162      -0.000002946576
163      -0.000001735282
164      -0.000001643775
165       0.000007091074
166       0.000003465662
167       0.000003641643
168      -0.000000929792
169       0.000001072524
170       0.000000038234
171       0.000001797646
172      -0.000000092544
173       0.000002910004
174      -0.000003300667
175      -0.000000077531
176      -0.000005619754
177       0.000000388329
178      -0.000002496809
179      -0.000002145970
180      -0.000000063612
181       0.000003445836
182       0.000000227931
183      -0.000004491118
184      -0.000000435551
 Sym=     1a
 Ene= -2.36654268269535E+02
 Spin= Alpha
 Occup= 1.000000
  1       0.000003335055
  2       0.000004213960
  3       0.000008021883
  4       0.000015947569
  5       0.000024553394
  6       0.000007900810
  7      -0.000048730561
  8      -0.000070870709
  9      -0.000005672852
 10      -0.000022851998
 11       0.000042464955
 12      -0.000059344933
 13       0.000075043108
 14      -0.000061390719
 15      -0.000033489755
 16       0.000220485058
 17      -0.000061733863
 18       0.000013650077
 19       0.330822713217
 20      -0.098777613832
 21       0.054711666507
 22       0.453667915858
 23      -0.135456239355
 24       0.075028194888
 25       0.291924044030
 26      -0.087160965975
 27       0.048279560353
 28       0.016721910388
 29      -0.004994726334
 30       0.002764653822
 31       0.005158397840
 32      -0.001538274365
 33       0.000853951131
 34      -0.003588018375
 35       0.001068612253
 36      -0.000594583175
 37       0.002180889687
 38      -0.000649110735
 39       0.000361586586
 40      -0.001379274200
 41       0.000416060009
 42      -0.000226228467
 43       0.000863899799
 44      -0.000269208790
 45       0.000137885972
 46      -0.000287925855
 47       0.000138343321
 48      -0.000024458222
 49       0.000137152005
 50      -0.000052485461
 51       0.000017582900
 52      -0.000045813278
 53       0.000016811355
 54      -0.000006191818
 55      -0.000006735211
 56       0.000005758996
 57      -0.000001282123
 58       0.000012858503
 59      -0.000004241373
 60       0.000001038677
 61       0.000000150189
 62      -0.000000339062
 63      -0.000000033185
 64       0.000001642416
 65       0.000001353518
 66      -0.000006113989
 67       0.000001494551
 68      -0.000010049449
 69      -0.000004711860
 70      -0.000004437770
 71       0.000014845505
 72      -0.000004075346
 73       0.000025773927
 74       0.000009309578
 75       0.000007562027
 76      -0.000029183894
 77       0.000009389413
 78      -0.000051823711
 79      -0.000019286718
 80      -0.000007415537
 81       0.000041277628
 82      -0.000016201876
 83       0.000075217356
 84       0.000030678414
 85      -0.000030376843
 86       0.000033846447
 87       0.000004967735
 88       0.000052177042
 89      -0.000002182325
 90       0.000009209083
 91      -0.000018317666
 92       0.000002091879
 93      -0.000030159141
 94      -0.000007370281
 95      -0.000002781507
 96       0.000005577067
 97      -0.000000638072
 98       0.000009169408
 99       0.000002279044
100       0.000002014443
101       0.000003386201
102      -0.000001170077
103      -0.000006000518
104      -0.000001809333
105       0.000003473630
106       0.000001701380
107      -0.000006107178
108      -0.000016609983
109       0.000008322318
110       0.000030767991
111       0.000012078053
112      -0.000009668816
113      -0.000010716442
114      -0.000006503318
115       0.000001148501
116      -0.000005238065
117      -0.000001029137
118      -0.000005044599
119      -0.000013425120
120       0.000000882373
121       0.000000993494
122      -0.000005161408
123       0.000010491752
124      -0.000033923391
125      -0.000050365390
126      -0.000020201342
127      -0.000001761305
128       0.000008592779
129       0.000003276622
130       0.000010465370
131      -0.000037595623
132      -0.000013515337
133       0.000011112262
134      -0.000008768183
135      -0.000000572759
136       0.000000919976
137       0.000000825912
138      -0.000002694254
139       0.000004101527
140       0.000000816947
141      -0.000007967864
142      -0.000004689273
143       0.000014809676
144      -0.000020816704
145      -0.000009351324
146       0.000001103534
147       0.000000621878
148      -0.000000127905
149       0.000001993558
150       0.000000247236
151      -0.000000151393
152      -0.000002915788
153       0.000002262770
154      -0.000011712269
155       0.000022869979
156      -0.000045528005
157      -0.000028677455
158      -0.000204647961
159       0.000013042757
160       0.000001174402
161       0.000004398397
162       0.000021864186
163       0.000000749847
164       0.000006833520
165       0.000099065365
166       0.000003874626
167       0.000031176133
168       0.000004989640
169      -0.000007309455
170      -0.000000715271
171      -0.000010738971
172      -0.000001819867
173      -0.000011249055
174       0.000015843939
175       0.000001229684
176       0.000024006664
177       0.000003044363
178       0.000014214230
179       0.000011003045
180       0.000000730123
181      -0.000019836917
182      -0.000002681906
183       0.000024344600
184       0.000005146508
 Sym=     1a
 Ene= -2.36653835246181E+02
 Spin= Alpha
 Occup= 1.000000
  1      -0.000000925693
  2      -0.000001126725
  3      -0.000002345233
  4      -0.000003946877
  5      -0.000007839547
  6       0.000000440642
  7       0.000006447520
  8       0.000026291474
  9      -0.000006898230
 10       0.000036433679
 11      -0.000066246252
 12       0.000102632898
 13      -0.000157262933
 14       0.000200309699
 15      -0.000124143940
 16      -0.000089324014
 17       0.000064629595
 18      -0.000014814992
 19      -0.065813504335
 20      -0.306305465372
 21      -0.155049936380
 22      -0.090252866087
 23      -0.420046195321
 24      -0.212625019218
 25      -0.058075862991
 26      -0.270282257811
 27      -0.136815921395
 28      -0.003326319288
 29      -0.015490497480
 30      -0.007840598195
 31      -0.001025631190
 32      -0.004763945838
 33      -0.002412085991
 34       0.000711995985
 35       0.003300967288
 36       0.001671744411
 37      -0.000428289786
 38      -0.001987191627
 39      -0.001006295010
 40       0.000257112518
 41       0.001239525739
 42       0.000624698223
 43      -0.000141966178
 44      -0.000773324617
 45      -0.000384255439
 46       0.000002054018
 47       0.000408532461
 48       0.000181301675
 49      -0.000018993253
 50      -0.000166668931
 51      -0.000079365474
 52       0.000007048210
 53       0.000053160508
 54       0.000025608774
 55      -0.000000101316
 56      -0.000006600864
 57      -0.000003527767
 58      -0.000002681041
 59      -0.000010870067
 60       0.000001039071
 61       0.000001710495
 62       0.000000060884
 63       0.000001219288
 64       0.000003897769
 65      -0.000004305830
 66       0.000000280216
 67       0.000003845287
 68      -0.000002207169
 69      -0.000004096728
 70       0.000009894766
 71      -0.000001300848
 72      -0.000008735172
 73       0.000004170034
 74       0.000008637064
 75      -0.000020382776
 76       0.000001586082
 77       0.000019369505
 78      -0.000011769841
 79      -0.000018316771
 80       0.000031346923
 81       0.000001774966
 82      -0.000032497721
 83       0.000026752238
 84       0.000031843773
 85       0.000003290456
 86      -0.000023934836
 87       0.000013367722
 88      -0.000048478362
 89      -0.000016876294
 90      -0.000008915933
 91       0.000005534817
 92       0.000005921586
 93       0.000004009755
 94      -0.000003434061
 95       0.000002731503
 96      -0.000001636434
 97      -0.000001888714
 98      -0.000001056127
 99       0.000001080443
100      -0.000003386319
101      -0.000000341406
102      -0.000001771377
103      -0.000000560413
104      -0.000001700389
105      -0.000005485413
106       0.000001511731
107       0.000020244837
108      -0.000001297217
109       0.000012651405
110       0.000009703887
111       0.000012223965
112       0.000031639333
113      -0.000011089761
114      -0.000008878885
115       0.000005110206
116      -0.000008513415
117      -0.000015502297
118      -0.000009685912
119      -0.000012272914
120       0.000010875635
121       0.000001363824
122      -0.000007122324
123       0.000014632481
124      -0.000049146518
125      -0.000075289070
126      -0.000055132290
127      -0.000005984573
128       0.000012123435
129       0.000003582000
130       0.000024996823
131      -0.000055570940
132      -0.000017143300
133      -0.000000547913
134      -0.000013379182
135      -0.000006080407
136       0.000003104976
137       0.000001282112
138      -0.000002562952
139       0.000003020417
140       0.000004990083
141      -0.000017481968
142      -0.000007792221
143       0.000017291938
144      -0.000021648743
145      -0.000027006769
146       0.000000534702
147      -0.000000870908
148       0.000001204646
149      -0.000000114737
150       0.000001060744
151       0.000002330957
152       0.000001024966
153      -0.000001233543
154       0.000006350759
155      -0.000012389309
156       0.000028425713
157       0.000034848203
158       0.000108307475
159      -0.000006259744
160      -0.000000386175
161      -0.000002032487
162      -0.000001747455
163       0.000004800959
164       0.000001603929
165      -0.000043056630
166      -0.000004844098
167      -0.000014947719
168      -0.000002111513
169       0.000002473594
170      -0.000000210535
171       0.000004539722
172      -0.000000351103
173       0.000004477524
174      -0.000008088989
175      -0.000001179779
176      -0.000010662087
177      -0.000003936156
178      -0.000004888528
179      -0.000005394951
180       0.000000129617
181       0.000006551246
182      -0.000001216592
183      -0.000010399120
184       0.000001879695
 Sym=     1a
 Ene= -2.36653345709840E+02
 Spin= Alpha
 Occup= 1.000000
  1       0.000000000092
  2       0.000000000116
  3       0.000000000225
  4       0.000000000430
  5       0.000000000704
  6       0.000000000150
  7      -0.000000001174
  8      -0.000000002034
  9      -0.000000000131
 10      -0.000000001299
 11       0.000000002404
 12      -0.000000003516
 13       0.000000004929
 14      -0.000000005304
 15       0.000000001177
 16       0.000000008162
 17      -0.000000002955
 18       0.000000000661
 19       0.091754471215
 20       0.136436946622
 21      -0.308481685610
 22       0.125825897225
 23       0.187100432152
 24      -0.423030990556
 25       0.080963082409
 26       0.120390380698
 27      -0.272200664609
 28       0.004642375268
 29       0.006903114218
 30      -0.015607827754
 31       0.001423330849
 32       0.002116461330
 33      -0.004785283770
 34      -0.000982567308
 35      -0.001461054504
 36       0.003303419586
 37       0.000583657736
 38       0.000867883023
 39      -0.001962268358
 40      -0.000350026459
 41      -0.000520476527
 42       0.001176787653
 43       0.000204665558
 44       0.000304327818
 45      -0.000688078843
 46      -0.000113870178
 47      -0.000169330043
 48       0.000382853914
 49       0.000053171442
 50       0.000079067677
 51      -0.000178771414
 52      -0.000016897769
 53      -0.000025127410
 54       0.000056812860
 55      -0.000005669635
 56      -0.000010360011
 57       0.000001668025
 58       0.000003468489
 59       0.000004947110
 60       0.000001532326
 61       0.000002662520
 62      -0.000000358253
 63      -0.000000855518
 64      -0.000001303718
 65       0.000000825096
 66      -0.000000599183
 67       0.000001173842
 68       0.000000748110
 69      -0.000000209507
 70      -0.000001303348
 71      -0.000000073847
 72      -0.000001167848
 73      -0.000000574342
 74       0.000000578240
 75       0.000003181102
 76       0.000001767582
 77       0.000001783319
 78       0.000000458203
 79      -0.000001795846
 80      -0.000005431239
 81      -0.000004078237
 82      -0.000002332140
 83      -0.000000152382
 84       0.000003322984
 85       0.000005064752
 86       0.000003840528
 87       0.000002152871
 88       0.000000126247
 89      -0.000003107367
 90       0.000001392466
 91      -0.000000057310
 92       0.000001339082
 93       0.000000694257
 94      -0.000000584774
 95      -0.000000483618
 96      -0.000000025718
 97      -0.000000434436
 98      -0.000000214058
 99       0.000000214147
100      -0.000000302080
101       0.000000373097
102       0.000000438190
103       0.000000164667
104      -0.000000258208
105       0.000000094031
106       0.000000031954
107       0.000003157385
108      -0.000003714144
109      -0.000003014001
110      -0.000002381443
111       0.000002695648
112      -0.000001554224
113      -0.000000784457
114      -0.000003558972
115       0.000003308452
116       0.000003956008
117       0.000001868628
118      -0.000003375052
119       0.000001594602
120       0.000000093656
121       0.000000000006
122      -0.000000000033
123       0.000000000064
124      -0.000000000177
125      -0.000000000224
126       0.000000000331
127       0.000000670803
128       0.000000997550
129      -0.000002255364
130      -0.000001830801
131      -0.000002722656
132       0.000006155557
133       0.000002978675
134       0.000004429149
135      -0.000010014521
136       0.000001439813
137      -0.000001200654
138       0.000002153020
139       0.000001398461
140      -0.000000328042
141      -0.000004772454
142       0.000003994285
143      -0.000007146213
144      -0.000004644050
145       0.000001083782
146      -0.000001429734
147      -0.000000860559
148       0.000002916179
149      -0.000001253688
150      -0.000002195257
151       0.000000276610
152      -0.000001910178
153       0.000000000088
154      -0.000000000453
155       0.000000000884
156      -0.000000001815
157      -0.000000001411
158      -0.000000008043
159       0.000000702694
160       0.000001044320
161      -0.000002361006
162      -0.000004016428
163      -0.000005974094
164       0.000013507800
165       0.000004071750
166       0.000006049887
167      -0.000013677468
168       0.000000426610
169       0.000000681112
170      -0.000000059649
171      -0.000000203023
172      -0.000000348430
173      -0.000004877924
174      -0.000007961270
175       0.000000795299
176       0.000002418684
177       0.000004025759
178       0.000000723927
179      -0.000001648774
180      -0.000000199626
181      -0.000001280728
182       0.000000311061
183      -0.000000490192
184      -0.000000892333
 Sym=     1a
 Ene= -5.94274352415549E+01
 Spin= Alpha
 Occup= 1.000000
  1       0.013634722620
  2       0.017552802414
  3       0.032953355252
  4       0.069054652045
  5       0.104729051527
  6       0.046475777837
  7      -0.332079133290
  8      -0.694584617248
  9       0.333870936967
 10       0.945625536292
 11       0.081795513147
 12       0.029387893921
 13      -0.020144587448
 14       0.013900507305
 15      -0.009200327582
 16       0.005597678552
 17      -0.002205822988
 18       0.000588748567
 19      -0.000136250536
 20      -0.000006965646
 21      -0.000043603309
 22      -0.000212247216
 23      -0.000011463175
 24      -0.000068194728
 25      -0.000035020350
 26       0.000002582114
 27      -0.000009273594
 28       0.000539904597
 29       0.000038036432
 30       0.000177396613
 31       0.000316129437
 32      -0.000021164690
 33       0.000084660735
 34       0.000020317435
 35       0.000047004288
 36       0.000026830115
 37      -0.000054693617
 38      -0.000090317442
 39      -0.000056210319
 40       0.000081094637
 41       0.000165321390
 42       0.000097234237
 43       0.000006461300
 44      -0.000230530447
 45      -0.000100035389
 46       0.000081342744
 47       0.000393590443
 48       0.000198265182
 49       0.000007204179
 50      -0.000055532742
 51      -0.000022418016
 52      -0.000003919678
 53       0.000009968195
 54       0.000003242931