[Molden Format]
[Title]
 Molden file created by orca_2mkl for BaseName=/home/smirnovaanastasia2304_2125/_scratch/HERBD/Lu_OH_cc

[Atoms] AU
Lu   1  71         -0.3738596389         0.6515851299        -0.4915536722 
O    2   8         -1.5176560657         3.2074246082        -0.2065886404 
O    3   8         -1.2816179332        -1.7762650871        -1.7953777772 
O    4   8          2.0684980056        -0.2653647924         0.7984319683 
H    5   1          3.4702061449        -0.7662083583         1.5891878690 
H    6   1         -2.2514556208         4.7620021431         0.0049151777 
H    7   1         -1.8741680187        -3.2379115599        -2.6024401248 
[GTO]
  1 0
s   6 1.0 
  1397555.9200170001      2804.5119890306
   621135.9644520000      -768.2142817432
   276060.4286450000      1614.2664970544
   122693.5238420000       325.7081593792
    54530.4550410000       933.9810932816
    24235.7577960000       660.3076369236
s   1 1.0 
    10771.4479090000       753.5562155476
s   1 1.0 
     4787.3101820000       410.1840490352
s   1 1.0 
     2127.6934140000       223.2759157081
s   1 1.0 
      945.6415170000       121.5360144873
s   1 1.0 
      420.2851190000        66.1558268983
s   1 1.0 
      186.7933860000        36.0106709485
s   1 1.0 
       83.0192830000        19.6017265299
s   1 1.0 
       36.8974590000        10.6698284372
s   1 1.0 
       16.3988710000         5.8079190473
s   1 1.0 
        7.2883870000         3.1614306601
s   1 1.0 
        3.2392830000         1.7208648389
s   1 1.0 
        1.4396810000         0.9367200088
s   1 1.0 
        0.6398580000         0.5098856569
s   1 1.0 
        0.2843820000         0.2775470850
s   1 1.0 
        0.1263920000         0.1510774973
s   1 1.0 
        0.0561740000         0.0822359293
s   1 1.0 
        0.0249660000         0.0447632713
p   5 1.0 
    19323.3677850000      4822.9024605813
     7729.3471140000      1785.4667582687
     3091.7388460000      2818.2407679143
     1236.6955380000      2630.9996712709
      494.6782150000      2452.2890501058
p   1 1.0 
      197.8712860000      1057.8365251009
p   1 1.0 
       79.1485140000       336.5065675676
p   1 1.0 
       31.6594060000       107.0455309803
p   1 1.0 
       12.6637620000        34.0520696291
p   1 1.0 
        5.0655050000        10.8322462266
p   1 1.0 
        2.0262020000         3.4458273403
p   1 1.0 
        0.8104810000         1.0961465862
p   1 1.0 
        0.3241920000         0.3486927800
p   1 1.0 
        0.1296770000         0.1109222783
p   1 1.0 
        0.0518710000         0.0352854665
p   1 1.0 
        0.0207480000         0.0112243290
d   4 1.0 
     1430.5278870000      7824.3378881590
      520.1919590000      7307.3728048244
      189.1607120000      6842.4164092826
       68.7857140000      3759.1188941727
d   1 1.0 
       25.0129870000       797.5534701543
d   1 1.0 
        9.0956320000       135.8087103594
d   1 1.0 
        3.3075020000        23.1257212041
d   1 1.0 
        1.2027280000         3.9378853841
d   1 1.0 
        0.4373560000         0.6705504976
d   1 1.0 
        0.1590380000         0.1141817430
d   1 1.0 
        0.0578320000         0.0194430527
d   1 1.0 
        0.0210300000         0.0033108447
f   4 1.0 
       46.7781990000      3161.2713943715
       15.5927330000       939.9878603884
        5.1975780000       122.7894475198
        1.7325260000         7.1830685073
f   1 1.0 
        0.5775090000         1.6577051316
f   1 1.0 
        0.1925030000         0.1399537239

  2 0
s   6 1.0 
    27032.3826310000         1.4645050749
     4052.3871392000         1.8244031008
      922.3272271000         2.8547160967
      261.2407098900         4.3654874290
       85.3546413500         5.8940772662
       31.0350352400         6.2963020147
s   1 1.0 
       12.2608607300         4.6698272139
s   1 1.0 
        4.9987076000         2.3826123703
s   1 1.0 
        1.1703108200         0.8019291632
s   1 1.0 
        0.4647474100        -0.4011648063
s   1 1.0 
        0.1850453600         0.2010799377
p   4 1.0 
       63.2749548000         3.0898340730
       14.6270493800         3.3923831935
        4.4501223500         2.9482801524
        1.5275799600         1.7113350234
p   1 1.0 
        0.5293511800         0.6436057935
p   1 1.0 
        0.1747842100         0.1610897223
d   1 1.0 
        2.3140000000        12.3767310624
d   1 1.0 
        0.6450000000         1.3234257612
f   1 1.0 
        1.4280000000        12.7097950062

  3 0
s   6 1.0 
    27032.3826310000         1.4645050749
     4052.3871392000         1.8244031008
      922.3272271000         2.8547160967
      261.2407098900         4.3654874290
       85.3546413500         5.8940772662
       31.0350352400         6.2963020147
s   1 1.0 
       12.2608607300         4.6698272139
s   1 1.0 
        4.9987076000         2.3826123703
s   1 1.0 
        1.1703108200         0.8019291632
s   1 1.0 
        0.4647474100        -0.4011648063
s   1 1.0 
        0.1850453600         0.2010799377
p   4 1.0 
       63.2749548000         3.0898340730
       14.6270493800         3.3923831935
        4.4501223500         2.9482801524
        1.5275799600         1.7113350234
p   1 1.0 
        0.5293511800         0.6436057935
p   1 1.0 
        0.1747842100         0.1610897223
d   1 1.0 
        2.3140000000        12.3767310624
d   1 1.0 
        0.6450000000         1.3234257612
f   1 1.0 
        1.4280000000        12.7097950062

  4 0
s   6 1.0 
    27032.3826310000         1.4645050749
     4052.3871392000         1.8244031008
      922.3272271000         2.8547160967
      261.2407098900         4.3654874290
       85.3546413500         5.8940772662
       31.0350352400         6.2963020147
s   1 1.0 
       12.2608607300         4.6698272139
s   1 1.0 
        4.9987076000         2.3826123703
s   1 1.0 
        1.1703108200         0.8019291632
s   1 1.0 
        0.4647474100        -0.4011648063
s   1 1.0 
        0.1850453600         0.2010799377
p   4 1.0 
       63.2749548000         3.0898340730
       14.6270493800         3.3923831935
        4.4501223500         2.9482801524
        1.5275799600         1.7113350234
p   1 1.0 
        0.5293511800         0.6436057935
p   1 1.0 
        0.1747842100         0.1610897223
d   1 1.0 
        2.3140000000        12.3767310624
d   1 1.0 
        0.6450000000         1.3234257612
f   1 1.0 
        1.4280000000        12.7097950062

  5 0
s   3 1.0 
       34.0613410000         0.2556300129
        5.1235746000         0.4613599287
        1.1646626000         0.6811215012
s   1 1.0 
        0.3272304100         0.3083545312
s   1 1.0 
        0.1030724100         0.1296483265
p   1 1.0 
        0.8000000000         1.0784563492

  6 0
s   3 1.0 
       34.0613410000         0.2556300129
        5.1235746000         0.4613599287
        1.1646626000         0.6811215012
s   1 1.0 
        0.3272304100         0.3083545312
s   1 1.0 
        0.1030724100         0.1296483265
p   1 1.0 
        0.8000000000         1.0784563492

  7 0
s   3 1.0 
       34.0613410000         0.2556300129
        5.1235746000         0.4613599287
        1.1646626000         0.6811215012
s   1 1.0 
        0.3272304100         0.3083545312
s   1 1.0 
        0.1030724100         0.1296483265
p   1 1.0 
        0.8000000000         1.0784563492

[5D]
[7F]
[9G]
[MO]
 Sym=     1a
 Ene= -2.33409526355098E+03
 Spin= Alpha
 Occup= 2.000000
  1       0.099534783653
  2       0.106648168073
  3       0.179819539525
  4       0.301237392650
  5       0.330325027267
  6       0.163845030583
  7       0.008516218820
  8       0.003470907588
  9      -0.002526601751
 10       0.001680657276
 11      -0.001134816692
 12       0.000770283638
 13      -0.000522678515
 14       0.000344737429
 15      -0.000241755582
 16       0.000312401533
 17      -0.000056169588
 18       0.000013497336
 19      -0.000000231161
 20       0.000000385972
 21      -0.000000081557
 22       0.000000052709
 23      -0.000000125436
 24       0.000000100138
 25      -0.000000082359
 26       0.000000151337
 27      -0.000000088998
 28       0.000000071634
 29      -0.000000128581
 30       0.000000112032
 31      -0.000000084202
 32       0.000000144019
 33      -0.000000167507
 34       0.000000116981
 35      -0.000000187890
 36       0.000000270221
 37      -0.000000156284
 38       0.000000221369
 39      -0.000000432683
 40       0.000000484419
 41      -0.000000673719
 42       0.000000410272
 43      -0.000002416294
 44       0.000004056479
 45       0.000000429671
 46       0.000009229170
 47      -0.000022835863
 48       0.000002959087
 49      -0.000000888077
 50       0.000002421972
 51      -0.000000255335
 52       0.000000167105
 53      -0.000000531717
 54       0.000000049190
 55      -0.000000024562
 56       0.000000012530
 57       0.000000010936
 58      -0.000000022537
 59      -0.000000023060
 60       0.000000263309
 61      -0.000000186514
 62      -0.000000153989
 63       0.000000206388
 64       0.000000216071
 65      -0.000000627761
 66       0.000000451885
 67       0.000000369939
 68      -0.000000486840
 69      -0.000000512458
 70       0.000001224806
 71      -0.000000865894
 72      -0.000000717181
 73       0.000000960917
 74       0.000001007128
 75      -0.000001494881
 76       0.000000970116
 77       0.000000840999
 78      -0.000001248520
 79      -0.000001270017
 80      -0.000003317745
 81       0.000002140913
 82       0.000002032661
 83      -0.000002556072
 84      -0.000002791121
 85      -0.000019643363
 86       0.000019603291
 87       0.000013319355
 88      -0.000012118097
 89      -0.000013024396
 90       0.000000271798
 91      -0.000000714345
 92      -0.000000388928
 93      -0.000000070187
 94      -0.000000099068
 95       0.000000023980
 96       0.000000094343
 97       0.000000049934
 98       0.000000069079
 99       0.000000094468
100      -0.000000011602
101       0.000000003572
102       0.000000002321
103       0.000000060435
104      -0.000000064840
105      -0.000000048808
106       0.000000015637
107      -0.000000363894
108       0.000000780778
109      -0.000001856061
110       0.000001366821
111      -0.000001989155
112      -0.000003896104
113       0.000001154449
114      -0.000000763031
115       0.000001287797
116      -0.000003254380
117       0.000006851417
118      -0.000007509117
119      -0.000010147877
120       0.000002917872
121      -0.000000028326
122       0.000000227449
123      -0.000000827789
124       0.000006789746
125       0.000011164963
126      -0.000065910565
127       0.000000626828
128      -0.000001589891
129      -0.000000221215
130      -0.000002242958
131       0.000006124433
132       0.000000877199
133      -0.000008658049
134       0.000019522353
135       0.000002190938
136      -0.000000154607
137      -0.000000281151
138      -0.000000003484
139      -0.000000356584
140      -0.000000335214
141       0.000004020375
142       0.000001531647
143      -0.000001247176
144       0.000005392143
145       0.000005737181
146      -0.000000379182
147       0.000000526269
148      -0.000001379379
149      -0.000000170173
150      -0.000000547104
151      -0.000002018544
152       0.000000736980
153       0.000000025676
154      -0.000000027932
155      -0.000000287021
156       0.000003432334
157       0.000001137784
158      -0.000078899905
159       0.000000287439
160       0.000001380010
161       0.000000595445
162       0.000000002255
163      -0.000003184658
164      -0.000000966022
165      -0.000010236027
166      -0.000024353693
167      -0.000013718686
168      -0.000000119237
169       0.000000062084
170       0.000000430451
171      -0.000000490811
172       0.000000306266
173       0.000001370833
174      -0.000001174873
175      -0.000004365901
176       0.000004184899
177      -0.000002926061
178       0.000000985573
179       0.000000062453
180      -0.000000001343
181       0.000001408947
182      -0.000000933282
183      -0.000001286160
184      -0.000000816716
185       0.000000040265
186      -0.000000096165
187      -0.000000151079
188       0.000002890927
189       0.000000503597
190      -0.000075598756
191      -0.000001269464
192       0.000000638376
193      -0.000000626116
194       0.000002443854
195      -0.000001725300
196       0.000001021274
197       0.000023828792
198      -0.000007982763
199       0.000012935477
200      -0.000000137859
201       0.000000348769
202      -0.000000252731
203       0.000000316186
204      -0.000000361836
205       0.000001342431
206      -0.000003820253
207       0.000001930958
208      -0.000003161452
209       0.000003267526
210      -0.000001042696
211      -0.000000114105
212      -0.000000077346
213       0.000001180233
214      -0.000001267482
215      -0.000000694648
216       0.000001352599
217       0.000001091406
218       0.000003492983
219      -0.000003078120
220      -0.000001498105
221       0.000000366929
222      -0.000000862651
223       0.000001630254
224       0.000005378243
225      -0.000002415381
226       0.000001025464
227      -0.000002117268
228      -0.000000267811
229       0.000001271705
230       0.000003416733
231      -0.000003231396
232       0.000000882579
233       0.000001709734
234       0.000001061845
 Sym=     1a
 Ene= -4.02487988990563E+02
 Spin= Alpha
 Occup= 2.000000
  1       0.038358473599
  2       0.045558773257
  3       0.077513865374
  4       0.153220474150
  5       0.200793265766
  6       0.059020833610
  7      -0.497392060916
  8      -0.578461003060
  9      -0.079153036579
 10      -0.005114343567
 11       0.004492069249
 12      -0.003197253720
 13       0.002299828928
 14      -0.001563644249
 15       0.001114511992
 16      -0.001452251715
 17       0.000259529167
 18      -0.000062374258
 19       0.000009036451
 20      -0.000012443050
 21      -0.000001693648
 22       0.000012663180
 23      -0.000017580505
 24      -0.000002182150
 25       0.000010326144
 26      -0.000014354061
 27      -0.000001562769
 28       0.000001129628
 29      -0.000001593399
 30      -0.000000319441
 31       0.000000452338
 32      -0.000000643404
 33       0.000000489905
 34      -0.000000502739
 35       0.000000763964
 36      -0.000001094000
 37       0.000000664290
 38      -0.000000884267
 39       0.000001854112
 40      -0.000002206556
 41       0.000003003671
 42      -0.000001846371
 43       0.000011038428
 44      -0.000018396170
 45      -0.000001732282
 46      -0.000042458013
 47       0.000105405778
 48      -0.000013917024
 49       0.000004070302
 50      -0.000011186935
 51       0.000001214827
 52      -0.000000773126
 53       0.000002468169
 54      -0.000000241452
 55       0.000000663399
 56      -0.000001024924
 57      -0.000000414137
 58       0.000000148634
 59       0.000000379252
 60      -0.000000290616
 61       0.000000398330
 62       0.000000173424
 63      -0.000000097500
 64      -0.000000189409
 65       0.000002388462
 66      -0.000001829773
 67      -0.000001394500
 68       0.000001772039
 69       0.000001926780
 70      -0.000005197388
 71       0.000003767994
 72       0.000003038335
 73      -0.000004005716
 74      -0.000004254180
 75       0.000007008221
 76      -0.000004688558
 77      -0.000003962758
 78       0.000005736775
 79       0.000005912095
 80       0.000013908153
 81      -0.000008621370
 82      -0.000008533578
 83       0.000010961228
 84       0.000011779626
 85       0.000092133726
 86      -0.000091672186
 87      -0.000062399950
 88       0.000056963990
 89       0.000061228386
 90      -0.000001397291
 91       0.000003395775
 92       0.000001890108
 93       0.000000199416
 94       0.000000354099
 95      -0.000000060201
 96      -0.000000478905
 97      -0.000000263720
 98      -0.000000282100
 99      -0.000000399578
100       0.000000095474
101      -0.000000082925
102       0.000000135143
103      -0.000000493326
104       0.000000560394
105       0.000000615702
106      -0.000000191163
107       0.000001505896
108      -0.000003313300
109       0.000007893034
110      -0.000005475730
111       0.000008146183
112       0.000016319058
113      -0.000004815718
114       0.000003600288
115      -0.000006080887
116       0.000015331568
117      -0.000032054977
118       0.000035187092
119       0.000047652737
120      -0.000013711743
121       0.000000118860
122      -0.000001071898
123       0.000003772123
124      -0.000030143927
125      -0.000048403475
126       0.000308732636
127      -0.000002853204
128       0.000007234518
129       0.000001003056
130       0.000009616882
131      -0.000026521810
132      -0.000003829453
133       0.000040804665
134      -0.000092052395
135      -0.000010357342
136       0.000000783803
137       0.000001289489
138      -0.000000005306
139       0.000001711903
140       0.000001634422
141      -0.000017988671
142      -0.000006924930
143       0.000005536961
144      -0.000024140004
145      -0.000025738225
146       0.000001728881
147      -0.000002428987
148       0.000006316881
149       0.000000813362
150       0.000002453504
151       0.000009221461
152      -0.000003335891
153      -0.000000098272
154       0.000000038752
155       0.000001336287
156      -0.000014887070
157      -0.000003062118
158       0.000367676025
159      -0.000001298669
160      -0.000006233114
161      -0.000002691204
162      -0.000000331021
163       0.000013511340
164       0.000003895310
165       0.000047813567
166       0.000114042907
167       0.000064173095
168       0.000000564864
169      -0.000000327294
170      -0.000002046021
171       0.000002287202
172      -0.000001461072
173      -0.000006095643
174       0.000005298325
175       0.000019525416
176      -0.000018657821
177       0.000013145986
178      -0.000004489313
179      -0.000000266116
180       0.000000020248
181      -0.000006367531
182       0.000004286417
183       0.000005837739
184       0.000003651833
185      -0.000000155566
186       0.000000330919
187       0.000000735010
188      -0.000012408556
189      -0.000000160554
190       0.000352095710
191       0.000005727276
192      -0.000002878351
193       0.000002823242
194      -0.000010088729
195       0.000007429426
196      -0.000004110090
197      -0.000111432319
198       0.000037413307
199      -0.000060477503
200       0.000000652072
201      -0.000001677091
202       0.000001172782
203      -0.000001508449
204       0.000001694536
205      -0.000005963194
206       0.000017053136
207      -0.000008601746
208       0.000014108496
209      -0.000014517666
210       0.000004737536
211       0.000000499206
212       0.000000340489
213      -0.000005387698
214       0.000005718630
215       0.000003163587
216      -0.000006105508
217      -0.000004899482
218      -0.000015774481
219       0.000014551747
220       0.000006860933
221      -0.000001709455
222       0.000003932888
223      -0.000007320067
224      -0.000024412565
225       0.000011432752
226      -0.000004657073
227       0.000009663682
228       0.000001221331
229      -0.000005737894
230      -0.000015343685
231       0.000015217939
232      -0.000003999735
233      -0.000007830926
234      -0.000004838670
 Sym=     1a
 Ene= -3.55212723258322E+02
 Spin= Alpha
 Occup= 2.000000
  1      -0.000001903493
  2      -0.000002274115
  3      -0.000003844215
  4      -0.000007732092
  5      -0.000009935424
  6      -0.000002933140
  7       0.000027932596
  8       0.000026350595
  9       0.000003016299
 10      -0.000005238896
 11       0.000008411117
 12      -0.000012180149
 13       0.000020889602
 14      -0.000087862023
 15       0.000193613060
 16      -0.000270546179
 17      -0.000002046132
 18       0.000000476534
 19       0.207533651475
 20      -0.297851455842
 21       0.034737073343
 22       0.272842665435
 23      -0.391581332968
 24       0.045669228038
 25       0.169366982188
 26      -0.243076074095
 27       0.028347976846
 28       0.007381911947
 29      -0.010589040037
 30       0.001238589745
 31       0.003336924538
 32      -0.004800794513
 33       0.000552219855
 34      -0.002320372560
 35       0.003352216110
 36      -0.000376522042
 37       0.001484672026
 38      -0.002170458265
 39       0.000227353643
 40      -0.001001148273
 41       0.001491117254
 42      -0.000139259613
 43       0.000582811141
 44      -0.000854356665
 45       0.000089374733
 46       0.000894724698
 47      -0.001371477432
 48       0.000058849405
 49      -0.000084325842
 50       0.000143240799
 51       0.000003775204
 52       0.000018008013
 53      -0.000031182096
 54      -0.000001750229
 55       0.000003795047
 56       0.000000595100
 57       0.000000158012
 58       0.000002549070
 59       0.000006362104
 60       0.000000613054
 61       0.000002590331
 62      -0.000000290543
 63       0.000002431668
 64       0.000001509755
 65      -0.000003030786
 66      -0.000008582664
 67       0.000001165154
 68      -0.000008997312
 69      -0.000006277090
 70       0.000007867873
 71       0.000019709836
 72      -0.000002403263
 73       0.000021268483
 74       0.000016019889
 75      -0.000009476600
 76      -0.000030274306
 77       0.000002872114
 78      -0.000028747952
 79      -0.000021956167
 80      -0.000043761913
 81      -0.000013778034
 82       0.000013711306
 83      -0.000065556392
 84      -0.000054547327
 85       0.000189519208
 86       0.000318869545
 87      -0.000094057150
 88       0.000490228485
 89       0.000271601359
 90      -0.000011894194
 91      -0.000035499641
 92       0.000007400998
 93      -0.000040388587
 94      -0.000021523315
 95       0.000004346395
 96       0.000012081548
 97      -0.000002750625
 98       0.000013823570
 99       0.000007584965
100      -0.000000194564
101       0.000001064831
102      -0.000002230370
103      -0.000002590283
104       0.000001603454
105      -0.000001602015
106       0.000000032304
107      -0.000003495911
108       0.000010732248
109      -0.000024449499
110      -0.000018611159
111       0.000001141678
112      -0.000026850075
113       0.000006267943
114      -0.000005694879
115      -0.000039796918
116       0.000087007002
117       0.000085376456
118      -0.000033803989
119       0.000077544548
120      -0.000004033461
121      -0.000005995997
122       0.000031651399
123      -0.000068795438
124       0.000273680631
125       0.000565868325
126       0.001745023156
127       0.000012394988
128      -0.000028581337
129      -0.000003609548
130       0.000007284426
131      -0.000014414373
132      -0.000004203546
133       0.000435943134
134      -0.000924191948
135      -0.000111972472
136      -0.000010094220
137      -0.000001917587
138       0.000003012838
139      -0.000011766599
140      -0.000013754851
141       0.000097500811
142       0.000015864109
143      -0.000029551052
144       0.000110834384
145       0.000133095184
146      -0.000009448907
147       0.000013696010
148      -0.000032274108
149      -0.000009170417
150      -0.000009177592
151      -0.000044473155
152       0.000016360072
153       0.000001860395
154      -0.000009926108
155       0.000021729107
156      -0.000077258759
157      -0.000148671876
158      -0.000364999596
159      -0.000001152594
160      -0.000008710042
161      -0.000003258304
162      -0.000031661991
163      -0.000035591757
164      -0.000030677051
165      -0.000075682042
166      -0.000261078648
167      -0.000125059282
168       0.000001223368
169       0.000000669993
170      -0.000006274663
171       0.000007402240
172      -0.000004848501
173      -0.000013294493
174      -0.000002790528
175       0.000036597576
176      -0.000047784091
177       0.000020342052
178      -0.000010143968
179       0.000000626406
180       0.000001122005
181      -0.000011564228
182       0.000013114732
183       0.000012558197
184       0.000002718239
185       0.000004018101
186      -0.000021029830
187       0.000044731375
188      -0.000157563769
189      -0.000341178362
190      -0.001025898852
191       0.000014175507
192      -0.000006931209
193       0.000007200625
194       0.000080771468
195      -0.000018006238
196       0.000047729310
197       0.000611792299
198      -0.000247294897
199       0.000329300184
200       0.000003426764
201      -0.000008925068
202       0.000006020184
203      -0.000008440214
204       0.000009746360
205      -0.000025109260
206       0.000060960333
207      -0.000037056358
208       0.000051460627
209      -0.000065755560
210       0.000016534796
211       0.000000327690
212      -0.000000257977
213      -0.000021139451
214       0.000017345990
215       0.000011280577
216      -0.000018704575
217      -0.000018502211
218      -0.000347712707
219      -0.000086935531
220       0.000063089346
221      -0.000011508177
222       0.000040123757
223       0.000030564465
224       0.000405753636
225       0.000111437701
226       0.000037530324
227      -0.000082526933
228      -0.000014754977
229      -0.000007904448
230      -0.000162843169
231      -0.000027051233
232      -0.000022987255
233      -0.000026840986
234      -0.000022248550
 Sym=     1a
 Ene= -3.55212671852697E+02
 Spin= Alpha
 Occup= 2.000000
  1       0.000000186819
  2       0.000000218999
  3       0.000000390280
  4       0.000000713025
  5       0.000001080869
  6       0.000000036714
  7      -0.000002082602
  8      -0.000003623342
  9       0.000001410513
 10      -0.000003086854
 11       0.000005328804
 12      -0.000008074795
 13       0.000007009521
 14       0.000028371607
 15      -0.000122628461
 16       0.000340748279
 17      -0.000033523371
 18       0.000009470864
 19       0.232969202928
 20       0.186746569923
 21       0.209386499409
 22       0.306284330781
 23       0.245514087054
 24       0.275279667427
 25       0.190122677117
 26       0.152402455776
 27       0.170877703452
 28       0.008294515051
 29       0.006643050857
 30       0.007452753907
 31       0.003729217920
 32       0.003001597367
 33       0.003356240529
 34      -0.002573256498
 35      -0.002085891673
 36      -0.002321303003
 37       0.001608991532
 38       0.001331511631
 39       0.001461495453
 40      -0.001036912544
 41      -0.000888477625
 42      -0.000953287939
 43       0.000589685727
 44       0.000491501724
 45       0.000538590605
 46       0.000830337807
 47       0.000792147341
 48       0.000786415951
 49      -0.000060111655
 50      -0.000074730391
 51      -0.000063224714
 52       0.000009535981
 53       0.000014564707
 54       0.000011232765
 55       0.000000146135
 56      -0.000001741844
 57       0.000002920411
 58      -0.000004765400
 59       0.000000918799
 60      -0.000000295111
 61       0.000000668818
 62      -0.000002429342
 63       0.000002355604
 64      -0.000003063879
 65       0.000001007780
 66      -0.000002158680
 67       0.000008012732
 68      -0.000007509526
 69       0.000010494307
 70      -0.000002396382
 71       0.000004213931
 72      -0.000017517887
 73       0.000015771794
 74      -0.000023471609
 75       0.000002261543
 76      -0.000004602253
 77       0.000023291287
 78      -0.000020751653
 79       0.000030762467
 80       0.000017843708
 81      -0.000016796570
 82       0.000042884228
 83      -0.000035827762
 84       0.000067883136
 85      -0.000079136099
 86       0.000168084865
 87      -0.000466373568
 88       0.000460328996
 89      -0.000596740256
 90       0.000005044294
 91      -0.000016510925
 92       0.000046155479
 93      -0.000047501363
 94       0.000057013945
 95      -0.000001915830
 96       0.000005508493
 97      -0.000014377845
 98       0.000014610293
 99      -0.000018450023
100       0.000001281737
101      -0.000000571610
102       0.000000255510
103       0.000000322455
104      -0.000001069658
105       0.000000033746
106      -0.000000244387
107       0.000032025327
108      -0.000000732561
109       0.000010085849
110       0.000007205748
111       0.000006221884
112       0.000002648256
113      -0.000035603871
114      -0.000135003318
115       0.000000380713
116      -0.000025845444
117      -0.000028232345
118      -0.000010468987
119       0.000009937313
120       0.000139788856
121       0.000001666620
122      -0.000008811773
123       0.000019235413
124      -0.000078642637
125      -0.000162928580
126      -0.000484920352
127      -0.000003679294
128       0.000008160798
129       0.000000924629
130      -0.000010739423
131      -0.000006143816
132      -0.000007929609
133      -0.000105502150
134       0.000262494507
135       0.000043606094
136       0.000002156097
137       0.000000979476
138      -0.000001864675
139       0.000004677312
140       0.000002945424
141      -0.000025490361
142      -0.000008240206
143       0.000019732850
144      -0.000045093912
145      -0.000028811712
146      -0.000000199240
147      -0.000007359464
148       0.000010007896
149      -0.000003216570
150      -0.000000875125
151       0.000016485058
152       0.000004423421
153      -0.000005626701
154       0.000029204779
155      -0.000061444038
156       0.000217221241
157       0.000437383263
158       0.001520951461
159       0.000005889433
160       0.000019052986
161       0.000009429203
162       0.000023872745
163       0.000053175890
164       0.000030652832
165       0.000324044128
166       0.000778727564
167       0.000436689128
168      -0.000005027004
169       0.000006082059
170       0.000014168532
171      -0.000011504246
172       0.000008935722
173       0.000029059650
174      -0.000044349716
175      -0.000099386418
176       0.000072242016
177      -0.000071403493
178       0.000020818312
179       0.000000207800
180       0.000000247440
181       0.000024811248
182      -0.000020123238
183      -0.000022679493
184      -0.000013719366
185       0.000004499574
186      -0.000023227775
187       0.000048486188
188      -0.000174324783
189      -0.000379573187
190      -0.001308012871