[Molden Format]
[Title]
 Molden file created by orca_2mkl for BaseName=/home/nikolayandreadi_2125/_scratch/F1_cc/Gd_F1_cc

[Atoms] AU
Gd   1  64         -0.5561048272        -0.1496417434        -1.5064197541 
F    2   9          3.0367048595        -0.5367615905        -0.6842395975 
[GTO]
  1 0
s   6 1.0 
  1133304.9414800000      2174.9610498235
   503691.0851020000      -577.4941628565
   223862.7044900000      1271.8793195317
    99494.5353290000       292.2852755405
    44219.7934790000       774.9724147105
    19653.2415460000       586.7258609135
s   1 1.0 
     8734.7740210000       643.9451069508
s   1 1.0 
     3882.1217870000       350.5193187461
s   1 1.0 
     1725.3874610000       190.7985502128
s   1 1.0 
      766.8388710000       103.8575758734
s   1 1.0 
      340.8172760000        56.5329037360
s   1 1.0 
      151.4743450000        30.7726150905
s   1 1.0 
       67.3219310000        16.7504899843
s   1 1.0 
       29.9208580000         9.1178118166
s   1 1.0 
       13.2981590000         4.9631080848
s   1 1.0 
        5.9102930000         2.7015738927
s   1 1.0 
        2.6267970000         1.4705506110
s   1 1.0 
        1.1674650000         0.8004661926
s   1 1.0 
        0.5188730000         0.4357183963
s   1 1.0 
        0.2306100000         0.2371748825
s   1 1.0 
        0.1024940000         0.1291022836
s   1 1.0 
        0.0455530000         0.0702745106
s   1 1.0 
        0.0202460000         0.0382529133
p   5 1.0 
    15432.8043060000      3126.8623215264
     6173.1217220000      1264.6366638851
     2469.2486890000      2002.5787782743
      987.6994760000      1963.6893411004
      395.0797900000      1867.4733471641
p   1 1.0 
      158.0319160000       798.6768471840
p   1 1.0 
       63.2127660000       254.0657253142
p   1 1.0 
       25.2851070000        80.8204162074
p   1 1.0 
       10.1140430000        25.7096451541
p   1 1.0 
        4.0456170000         8.1784507898
p   1 1.0 
        1.6182470000         2.6016334098
p   1 1.0 
        0.6472990000         0.8276014788
p   1 1.0 
        0.2589190000         0.2632661299
p   1 1.0 
        0.1035680000         0.0837475431
p   1 1.0 
        0.0414270000         0.0266406271
p   1 1.0 
        0.0165710000         0.0084747322
d   4 1.0 
     1092.7062230000      4841.5336151871
      397.3477180000      4644.8935401418
      144.4900790000      4335.5630527329
       52.5418470000      2336.0290078754
d   1 1.0 
       19.1061260000       497.7625276697
d   1 1.0 
        6.9476820000        84.7598081537
d   1 1.0 
        2.5264300000        14.4330396780
d   1 1.0 
        0.9187020000         2.4576823001
d   1 1.0 
        0.3340730000         0.4184971391
d   1 1.0 
        0.1214810000         0.0712622795
d   1 1.0 
        0.0441750000         0.0121347005
d   1 1.0 
        0.0160640000         0.0020663984
f   4 1.0 
       34.7127000000      1486.0079731034
       11.5709000000       452.7076001348
        3.8569670000        63.6295197498
        1.2856560000         3.8109128600
f   1 1.0 
        0.4285520000         0.8472430467
f   1 1.0 
        0.1428510000         0.0715298757

  2 0
s   6 1.0 
    35479.1004410000         1.9229128581
     5318.4728983000         2.2734773358
     1210.4810975000         3.4747482552
      342.8551814000         5.2879612972
      112.0194318100         7.1666332516
       40.7147402500         7.7556346254
s   1 1.0 
       16.0396781100         5.7122450312
s   1 1.0 
        6.5038186700         2.9025947842
s   1 1.0 
        1.5440477500         0.9872011154
s   1 1.0 
        0.6122345300        -0.4932856223
s   1 1.0 
        0.2402798000         0.2445952611
p   4 1.0 
       80.2339004800         4.2755032106
       18.5940107400         4.7314752302
        5.6867902700         4.0864798013
        1.9511006300         2.2989954518
p   1 1.0 
        0.6697021100         0.8635593126
p   1 1.0 
        0.2165130000         0.2105208234
d   1 1.0 
        3.1070000000        20.7284714039
d   1 1.0 
        0.8550000000         2.1672588463
f   1 1.0 
        1.9170000000        24.6547062912

[5D]
[7F]
[9G]
[MO]
 Sym=     1a
 Ene= -1.85296984439101E+03
 Spin= Alpha
 Occup= 1.000000
  1       0.086997686025
  2       0.097960342726
  3       0.173998056933
  4       0.299847764377
  5       0.340957325315
  6       0.172341249830
  7       0.010167966257
  8       0.003228543144
  9      -0.002349093081
 10       0.001548491073
 11      -0.001040336742
 12       0.000694415481
 13      -0.000454723804
 14       0.000294320578
 15      -0.000185810086
 16       0.000108726428
 17      -0.000047264974
 18       0.000012712873
 19      -0.000000488235
 20       0.000000052569
 21      -0.000000111661
 22       0.000000346712
 23      -0.000000037361
 24       0.000000079351
 25      -0.000000366674
 26       0.000000039497
 27      -0.000000083897
 28       0.000000367174
 29      -0.000000039559
 30       0.000000084021
 31      -0.000000510492
 32       0.000000055005
 33      -0.000000116821
 34       0.000000845859
 35      -0.000000091138
 36       0.000000193564
 37      -0.000001497688
 38       0.000000161372
 39      -0.000000342730
 40       0.000002610319
 41      -0.000000281258
 42       0.000000597347
 43      -0.000003608693
 44       0.000000388831
 45      -0.000000825814
 46       0.000006691936
 47      -0.000000721046
 48       0.000001531386
 49      -0.000001396893
 50       0.000000150513
 51      -0.000000319665
 52       0.000000303807
 53      -0.000000032735
 54       0.000000069523
 55       0.000000012212
 56      -0.000000005733
 57       0.000000005614
 58      -0.000000005251
 59      -0.000000000015
 60       0.000000026741
 61      -0.000000033839
 62      -0.000000006934
 63      -0.000000088176
 64       0.000000021681
 65      -0.000000111926
 66       0.000000103445
 67      -0.000000005480
 68       0.000000231477
 69      -0.000000051785
 70       0.000000264891
 71      -0.000000235578
 72       0.000000021311
 73      -0.000000514554
 74       0.000000113133
 75      -0.000000555522
 76       0.000000487263
 77      -0.000000050819
 78       0.000001054676
 79      -0.000000230340
 80       0.000000840915
 81      -0.000000735961
 82       0.000000078398
 83      -0.000001590637
 84       0.000000347013
 85      -0.000001756447
 86       0.000001535713
 87      -0.000000165119
 88       0.000003316970
 89      -0.000000723275
 90       0.000000249502
 91      -0.000000218319
 92       0.000000023300
 93      -0.000000471791
 94       0.000000102916
 95      -0.000000049999
 96       0.000000043774
 97      -0.000000004647
 98       0.000000094633
 99      -0.000000020649
100      -0.000000060491
101      -0.000000088865
102       0.000000008952
103       0.000000077314
104      -0.000000018526
105      -0.000000133102
106       0.000000043899
107       0.000000306141
108       0.000000448840
109      -0.000000047575
110      -0.000000397792
111       0.000000088840
112       0.000000690980
113      -0.000000229882
114      -0.000000559302
115      -0.000000819525
116       0.000000088128
117       0.000000730220
118      -0.000000159676
119      -0.000001271655
120       0.000000424101
121       0.000000086837
122      -0.000000408444
123       0.000000803185
124      -0.000002746563
125      -0.000005856611
126      -0.000009213220
127       0.000000459779
128      -0.000000049541
129       0.000000105216
130      -0.000002876153
131       0.000000309901
132      -0.000000658180
133       0.000003095837
134      -0.000000333572
135       0.000000708453
136       0.000000010486
137      -0.000000009171
138       0.000000000983
139      -0.000000019813
140       0.000000004321
141      -0.000000453306
142       0.000000396223
143      -0.000000042719
144       0.000000855631
145      -0.000000186546
146      -0.000000055282
147      -0.000000080993
148       0.000000008735
149       0.000000072246
150      -0.000000015729
151      -0.000000125879
152       0.000000042002
 Sym=     1a
 Ene= -3.10581831291814E+02
 Spin= Alpha
 Occup= 1.000000
  1      -0.032481054110
  2      -0.040293129021
  3      -0.072581755232
  4      -0.147582150765
  5      -0.205318786923
  6      -0.084144739263
  7       0.468432033600
  8       0.603402000213
  9       0.098314418481
 10       0.004127100170
 11      -0.003598865891
 12       0.002546504223
 13      -0.001813254419
 14       0.001218779935
 15      -0.000776150108
 16       0.000457098216
 17      -0.000199186686
 18       0.000053649139
 19      -0.000000890468
 20       0.000000094201
 21      -0.000000200543
 22      -0.000002838450
 23       0.000000303214
 24      -0.000000644814
 25      -0.000002160566
 26       0.000000230782
 27      -0.000000490971
 28       0.000000462312
 29      -0.000000049821
 30       0.000000105925
 31      -0.000002226872
 32       0.000000239760
 33      -0.000000509373
 34       0.000003223437
 35      -0.000000347282
 36       0.000000737609
 37      -0.000006034467
 38       0.000000650188
 39      -0.000001380907
 40       0.000011182376
 41      -0.000001204854
 42       0.000002558940
 43      -0.000015715311
 44       0.000001693291
 45      -0.000003596288
 46       0.000028393375
 47      -0.000003059337
 48       0.000006497543
 49      -0.000005918193
 50       0.000000637673
 51      -0.000001354318
 52       0.000001291625
 53      -0.000000139170
 54       0.000000295575
 55       0.000001690581
 56      -0.000000761837
 57       0.000000805903
 58      -0.000000612256
 59      -0.000000034811
 60       0.000000355786
 61      -0.000000188063
 62       0.000000144687
 63      -0.000000228457
 64       0.000000021126
 65       0.000000017752
 66       0.000000274860
 67       0.000000263962
 68       0.000001012568
 69      -0.000000289030
 70       0.000000940481
 71      -0.000000917057
 72       0.000000002832
 73      -0.000002117406
 74       0.000000484011
 75      -0.000002346062
 76       0.000002085202
 77      -0.000000189881
 78       0.000004552763
 79      -0.000001000746
 80       0.000003647524
 81      -0.000003215589
 82       0.000000319007
 83      -0.000006983457
 84       0.000001528985
 85      -0.000007440697
 86       0.000006518252
 87      -0.000000688067
 88       0.000014096932
 89      -0.000003076847
 90       0.000001047794
 91      -0.000000920946
 92       0.000000094140
 93      -0.000001996103
 94       0.000000436393
 95      -0.000000209800
 96       0.000000185281
 97      -0.000000018056
 98       0.000000402847
 99      -0.000000088276
100      -0.000000308881
101      -0.000000446892
102       0.000000063010
103       0.000000444389
104      -0.000000057042
105      -0.000000812063
106       0.000000282944
107       0.000001372655
108       0.000002002575
109      -0.000000238254
110      -0.000001855171
111       0.000000344192
112       0.000003289119
113      -0.000001115526
114      -0.000002392152
115      -0.000003502763
116       0.000000382897
117       0.000003140305
118      -0.000000669980
119      -0.000005484616
120       0.000001834187
121       0.000000318255
122      -0.000001621103
123       0.000003366173
124      -0.000011735323
125      -0.000024697055
126      -0.000038783631
127       0.000002067623
128      -0.000000222783
129       0.000000473156
130      -0.000012269312
131       0.000001322001
132      -0.000002807716
133       0.000012929900
134      -0.000001393179
135       0.000002958887
136       0.000000095358
137      -0.000000082934
138       0.000000009363
139      -0.000000178491
140       0.000000038817
141      -0.000002040347
142       0.000001784009
143      -0.000000191740
144       0.000003853369
145      -0.000000840255
146      -0.000000194822
147      -0.000000285553
148       0.000000030479
149       0.000000253729
150      -0.000000056096
151      -0.000000441279
152       0.000000146982
 Sym=     1a
 Ene= -2.76825543019428E+02
 Spin= Alpha
 Occup= 1.000000
  1       0.000000000262
  2       0.000000000326
  3       0.000000000589
  4       0.000000001197
  5       0.000000001693
  6       0.000000000542
  7      -0.000000003957
  8      -0.000000004315
  9      -0.000000001591
 10       0.000000000767
 11      -0.000000000906
 12       0.000000001911
 13      -0.000000003232
 14       0.000000004468
 15      -0.000000002901
 16      -0.000000001703
 17       0.000000001090
 18      -0.000000000232
 19      -0.057100709758
 20      -0.338098499112
 21       0.090276206534
 22      -0.077237784050
 23      -0.457331951148
 24       0.122112916243
 25      -0.049079452843
 26      -0.290603900648
 27       0.077594599664
 28      -0.002562043352
 29      -0.015170089932
 30       0.004050589262
 31      -0.000895600997
 32      -0.005302937894
 33       0.001415945796
 34       0.000613814061
 35       0.003634443775
 36      -0.000970438323
 37      -0.000365792258
 38      -0.002165880750
 39       0.000578314910
 40       0.000218305656
 41       0.001292593555
 42      -0.000345136949
 43      -0.000127003321
 44      -0.000751979683
 45       0.000200786651
 46       0.000070172214
 47       0.000415500642
 48      -0.000110943625
 49      -0.000033457548
 50      -0.000198109095
 51       0.000052897548
 52       0.000010639617
 53       0.000062999185
 54      -0.000016821545
 55      -0.000000269783
 56      -0.000000581784
 57       0.000000654496
 58       0.000000703863
 59       0.000002500710
 60       0.000000217763
 61       0.000000469505
 62      -0.000000529017
 63      -0.000000568515
 64      -0.000002018499
 65      -0.000000312255
 66      -0.000000673369
 67       0.000000759018
 68       0.000000815435
 69       0.000002894952
 70       0.000000281218
 71       0.000000605976
 72      -0.000000683426
 73      -0.000000734464
 74      -0.000002605853
 75      -0.000000320613
 76      -0.000000690160
 77       0.000000778881
 78       0.000000837440
 79       0.000002968818
 80       0.000000419265
 81       0.000000901949
 82      -0.000001018150
 83      -0.000001095036
 84      -0.000003880528
 85      -0.000000363494
 86      -0.000000785019
 87       0.000000885259
 88       0.000000950102
 89       0.000003374076
 90      -0.000000162306
 91      -0.000000349486
 92       0.000000394457
 93       0.000000424018
 94       0.000001503285
 95       0.000000054805
 96       0.000000118042
 97      -0.000000133222
 98      -0.000000143185
 99      -0.000000507712
100       0.000000356797
101      -0.000000345954
102      -0.000000468655
103      -0.000000017388
104       0.000000628025
105      -0.000000501430
106      -0.000001337584
107      -0.000000549435
108       0.000000730865
109       0.000000761308
110       0.000000365466
111      -0.000001531073
112       0.000001390187
113       0.000003487983
114       0.000000449030
115      -0.000000618861
116      -0.000000626197
117      -0.000000337364
118       0.000001314757
119      -0.000001204933
120      -0.000003011061
121       0.000000000012
122      -0.000000000069
123       0.000000000172
124      -0.000000000836
125      -0.000000000879
126       0.000000001708
127      -0.000000413060
128      -0.000002448306
129       0.000000653810
130       0.000001246857
131       0.000007395679
132      -0.000001975161
133      -0.000001641221
134      -0.000009710540
135       0.000002592585
136      -0.000000326293
137      -0.000000704259
138       0.000000794358
139       0.000000852803
140       0.000003027449
141       0.000001099350
142       0.000002373678
143      -0.000002677096
144      -0.000002873488
145      -0.000010202938
146       0.000000437908
147      -0.000000623138
148      -0.000000614593
149      -0.000000362463
150       0.000001338016
151      -0.000001236268
152      -0.000003077693
 Sym=     1a
 Ene= -2.76825272684129E+02
 Spin= Alpha
 Occup= 1.000000
  1       0.000000189482
  2       0.000000258193
  3       0.000000370162
  4       0.000001115630
  5       0.000000786226
  6       0.000001211645
  7      -0.000006056178
  8       0.000002633867
  9      -0.000011217662
 10       0.000020661593
 11      -0.000034986599
 12       0.000058861806
 13      -0.000097509965
 14       0.000138231863
 15      -0.000089749546
 16      -0.000052070562
 17       0.000032975424
 18      -0.000007032718
 19      -0.343856341156
 20       0.037221168977
 21      -0.078093887123
 22      -0.465120022698
 23       0.050347512149
 24      -0.105634317182
 25      -0.295553548149
 26       0.031992568566
 27      -0.067123751723
 28      -0.015421851011
 29       0.001669360206
 30      -0.003502477127
 31      -0.005405206620
 32       0.000585089837
 33      -0.001227602665
 34       0.003717746564
 35      -0.000402421030
 36       0.000844383105
 37      -0.002243192347
 38       0.000242796870
 39      -0.000509526164
 40       0.001390682714
 41      -0.000150498740
 42       0.000315971292
 43      -0.000858835988
 44       0.000092918869
 45      -0.000195214836
 46       0.000399914400
 47      -0.000043300557
 48       0.000090786092
 49      -0.000181846181
 50       0.000019693959
 51      -0.000041265475
 52       0.000058840753
 53      -0.000006371901
 54       0.000013354385
 55       0.000000130794
 56       0.000000264724
 57       0.000000358695
 58       0.000001131087
 59      -0.000000336320
 60       0.000000982698
 61      -0.000000659795
 62       0.000000272460
 63      -0.000001137596
 64       0.000000201311
 65      -0.000003886849
 66       0.000002835691
 67      -0.000000870911
 68       0.000005322377
 69      -0.000001030314
 70       0.000007825387
 71      -0.000006559349
 72       0.000000987712
 73      -0.000013770468
 74       0.000002938162
 75      -0.000016581572
 76       0.000014477567
 77      -0.000001571131
 78       0.000031260175
 79      -0.000006814505
 80       0.000027792158
 81      -0.000024267485
 82       0.000002633590
 83      -0.000052395169
 84       0.000011421334
 85       0.000006669071
 86      -0.000005879702
 87       0.000000589743
 88      -0.000012747350
 89       0.000002787645
 90      -0.000007544569
 91       0.000006597549
 92      -0.000000704982
 93       0.000014262287
 94      -0.000003111793
 95       0.000002213110
 96      -0.000001936617
 97       0.000000205470
 98      -0.000004188865
 99       0.000000914318
100      -0.000002115602
101      -0.000003164676
102       0.000000176827
103       0.000002311205
104      -0.000000945497
105      -0.000003608984
106       0.000001070672
107       0.000010738781
108       0.000015799145
109      -0.000001548804
110      -0.000013605691
111       0.000003379792
112       0.000023316865
113      -0.000007655368
114       0.000000559879
115       0.000000800834
116      -0.000000118775
117      -0.000000822224
118       0.000000090616
119       0.000001508859
120      -0.000000528450
121       0.000000399412
122      -0.000002302460
123       0.000005592012
124      -0.000026117329
125      -0.000027273041
126       0.000052272632
127       0.000010479682
128      -0.000001127925
129       0.000002402501
130      -0.000057858208
131       0.000006230458
132      -0.000013253069
133      -0.000047207760
134       0.000005091439
135      -0.000010786108
136       0.000001799007
137      -0.000001578223
138       0.000000170732
139      -0.000003395393
140       0.000000738474
141      -0.000014839029
142       0.000012984785
143      -0.000001406975
144       0.000027990080
145      -0.000006095210
146      -0.000000521863
147      -0.000000771119
148       0.000000085720
149       0.000000687667
150      -0.000000144384
151      -0.000001211473
152       0.000000407744
 Sym=     1a
 Ene= -2.76825255638122E+02
 Spin= Alpha
 Occup= 1.000000
  1      -0.000000000073
  2      -0.000000000130
  3      -0.000000000069
  4      -0.000000000766
  5       0.000000000265
  6      -0.000000001493
  7       0.000000006740
  8      -0.000000009111
  9       0.000000018137
 10      -0.000000035374
 11       0.000000060196
 12      -0.000000100956
 13       0.000000167180
 14      -0.000000237084
 15       0.000000153932
 16       0.000000089287
 17      -0.000000056536
 18       0.000000012059
 19      -0.064989015796
 20       0.100124465826
 21       0.333875489998
 22      -0.087908173128
 23       0.135434558564
 24       0.451620681290
 25      -0.055858946685
 26       0.086058355521
 27       0.286970579857
 28      -0.002915766381
 29       0.004492123309
 30       0.014979448852
 31      -0.001019936445
 32       0.001571373423
 33       0.005239917789
 34       0.000698401897
 35      -0.001076038270
 36      -0.003588184445
 37      -0.000416194736
 38       0.000641304957
 39       0.002138539438
 40       0.000248440398
 41      -0.000382942045
 42      -0.001277036445
 43      -0.000144342118
 44       0.000222610380
 45       0.000742412632
 46       0.000079916241
 47      -0.000123066109
 48      -0.000410353897
 49      -0.000038117062
 50       0.000058676263
 51       0.000195642310
 52       0.000012120008
 53      -0.000018659659
 54      -0.000062217300
 55      -0.000000420951
 56      -0.000001017776
 57       0.000000040603
 58       0.000000173150
 59      -0.000000341556
 60      -0.000000013959
 61      -0.000000027959
 62       0.000000000769
 63       0.000000006920
 64      -0.000000010162
 65      -0.000000577097
 66      -0.000001411595
 67       0.000000059065
 68       0.000000232495
 69      -0.000000471557
 70       0.000000617077
 71       0.000001530487
 72      -0.000000063834
 73      -0.000000237448
 74       0.000000506169
 75      -0.000001059556
 76      -0.000002646472
 77       0.000000109880
 78       0.000000397001
 79      -0.000000870489
 80       0.000001438948
 81       0.000003623650
 82      -0.000000150981
 83      -0.000000525817
 84       0.000001185763
 85      -0.000001288300
 86      -0.000003066520
 87       0.000000124794
 88       0.000000550644
 89      -0.000001040053
 90      -0.000000594233
 91      -0.000001474270
 92       0.000000061030
 93       0.000000226995
 94      -0.000000486951
 95       0.000000202112
 96       0.000000499446
 97      -0.000000020639
 98      -0.000000078091
 99       0.000000165379
100       0.000000559211
101      -0.000000514214
102       0.000000300799
103      -0.000000473825
104      -0.000000038478
105      -0.000000081272
106       0.000000195332
107      -0.000001473429
108       0.000001729203
109      -0.000000410635
110       0.000002050859
111      -0.000000133590
112       0.000000313949
113      -0.000000903474
114       0.000001512378
115      -0.000001864136
116       0.000000395719
117      -0.000002180215
118       0.000000153993
119      -0.000000382236
120       0.000000990848
121      -0.000000000686
122       0.000000003953
123      -0.000000009599
124       0.000000044801
125       0.000000046778
126      -0.000000089633
127      -0.000000495276
128       0.000000731139
129       0.000002424964
130       0.000001508277
131      -0.000002163397
132      -0.000007148275
133      -0.000001787523
134       0.000002845856
135       0.000009527542
136      -0.000001194981
137      -0.000002869151
138       0.000000117137
139       0.000000499434
140      -0.000000967648
141       0.000004041235
142       0.000009653740
143      -0.000000393237
144      -0.000001711095
145       0.000003266432
146       0.000001599579
147      -0.000001988908
148       0.000000396382
149      -0.000002351037
150       0.000000176284
151      -0.000000406092
152       0.000001067777
 Sym=     1a
 Ene= -7.08394336707492E+01
 Spin= Alpha
 Occup= 1.000000
  1      -0.015136677361
  2      -0.019019713919
  3      -0.034590076792
  4      -0.071493697687
  5      -0.105112939902
  6      -0.039268894261
  7       0.354959785519
  8       0.694969642302
  9      -0.405316852094
 10      -0.920985431566
 11      -0.054189338421
 12      -0.034259891712
 13       0.022930450196
 14      -0.015446493579
 15       0.010031144652
 16      -0.005930162848
 17       0.002595396465
 18      -0.000700643099
 19       0.000002425835
 20      -0.000000266763
 21       0.000000564975
 22       0.000005262439
 23      -0.000000575187
 24       0.000001219295
 25      -0.000008751170
 26       0.000000941045
 27      -0.000001999979
 28      -0.000007311134
 29       0.000000809779
 30      -0.000001712713
 31       0.000025733518
 32      -0.000002759906
 33       0.000005866314
 34      -0.000051638892
 35       0.000005562090
 36      -0.000011814130
 37       0.000085417747
 38      -0.000009202090
 39       0.000019544786
 40      -0.000146971842
 41       0.000015835486
 42      -0.000033632316
 43       0.000205539119
 44      -0.000022146124
 45       0.000047035039
 46      -0.000366049278
 47       0.000039441043
 48      -0.000083766587
 49       0.000077015125
 50      -0.000008298159
 51       0.000017624017
 52      -0.000016913391
 53       0.000001822358
 54      -0.000003870418
 55      -0.000038883306
 56       0.000019773046
 57      -0.000016507292
 58       0.000022180492
 59      -0.000001503044
 60      -0.000066268760
 61       0.000030362523
 62      -0.000031144412
 63       0.000025788229
 64       0.000000847113
 65      -0.000002206465
 66       0.000000763153
 67      -0.000001260541
 68      -0.000000033189
 69       0.000000280789
 70      -0.000014045309
 71       0.000011832170
 72      -0.000001724981
 73       0.000024910012
 74      -0.000005326217
 75       0.000028661208
 76      -0.000025916230
 77       0.000001920156
 78      -0.000057212760
 79       0.000012676423
 80      -0.000048152340
 81       0.000042017370
 82      -0.000004602173
 83       0.000090632343
 84      -0.000019743024
 85       0.000095791886
 86      -0.000083743006
 87       0.000009014822
 88      -0.000180860028
 89       0.000039434568
 90      -0.000013601582
 91       0.000011910601
 92      -0.000001262061
 93       0.000025752089
 94      -0.000005619610
 95       0.000002748204
 96      -0.000002406814
 97       0.000000254753
 98      -0.000005204201
 99       0.000001135722
100       0.000005579670
101       0.000008091388
102      -0.000001091006
103      -0.000007893182
104       0.000001133002
105       0.000014308424
106      -0.000004951418
107      -0.000018118223
108      -0.000026638612
109       0.000002626512
110       0.000022999652
111      -0.000005668251
112      -0.000039446293
113       0.000012962140
114       0.000030935551
115       0.000045347232
116      -0.000004827692
117      -0.000040254969
118       0.000008933350
119       0.000069978455
120      -0.000023298445
121      -0.000002510823
122       0.000016924710
123      -0.000038823802
124       0.000147365373
125       0.000313562656
126       0.000492463090
127      -0.000026741088
128       0.000002881314
129      -0.000006119444
130       0.000160555062
131      -0.000017299555
132       0.000036741480
133      -0.000164202727
134       0.000017692559
135      -0.000037576158
136      -0.000001806730
137       0.000001594465
138      -0.000000156483
139       0.000003465210
140      -0.000000759065
141       0.000027886961
142      -0.000024376307
143       0.000002627093
144      -0.000052641275
145       0.000011477159
146       0.000001832788
147       0.000002684520
148      -0.000000291315
149      -0.000002400131
150       0.000000517766
151       0.000004186457
152      -0.000001398336
 Sym=     1a
 Ene= -6.00966561216456E+01
 Spin= Alpha
 Occup= 1.000000
  1      -0.000000000661
  2      -0.000000000835
  3      -0.000000001499
  4      -0.000000003170
  5      -0.000000004498
  6      -0.000000001977
  7       0.000000016395
  8       0.000000028677
  9      -0.000000013944
 10      -0.000000050005
 11       0.000000016217
 12      -0.000000034077
 13       0.000000057627
 14      -0.000000081667
 15       0.000000053139
 16       0.000000031972
 17      -0.000000020115
 18       0.000000004290
 19       0.034757245605
 20      -0.053122365771
 21      -0.176966283694
 22       0.053410938829
 23      -0.081632344119
 24      -0.271941438628
 25       0.001475080381
 26      -0.002254486485
 27      -0.007510359861
 28      -0.132021664094
 29       0.201779600447
 30       0.672187420501
 31      -0.068911695643
 32       0.105323433524
 33       0.350863453397
 34       0.003035655211
 35      -0.004639662000
 36      -0.015456092039
 37      -0.003132393606
 38       0.004787530617
 39       0.015948692410
 40       0.001804614934
 41      -0.002758205321
 42      -0.009188422484
 43      -0.001048072523
 44       0.001601935661
 45       0.005336553713
 46       0.000581067358
 47      -0.000888073248
 48      -0.002958425931
 49      -0.000277591614
 50       0.000424249117
 51       0.001413292006
 52       0.000088386433
 53      -0.000135083736
 54      -0.000450001928
 55      -0.000007655277
 56      -0.000018494663
 57       0.000000751618
 58       0.000003178109
 59      -0.000006219866
 60      -0.000010278603
 61      -0.000024816293
 62       0.000001010287
 63       0.000004267333
 64      -0.000008347872
 65       0.000003363398
 66       0.000008091730
 67      -0.000000332172
 68      -0.000001391909
 69       0.000002724095
 70       0.000002448861
 71       0.000005915230
 72      -0.000000241931
 73      -0.000001007859
 74       0.000001987351
 75      -0.000007540439
 76      -0.000018199554
 77       0.000000745051
 78       0.000003108239
 79      -0.000006117433
 80       0.000010293806
 81       0.000024856796
 82      -0.000001017446
 83      -0.000004238593
 84       0.000008352715
 85      -0.000009216727
 86      -0.000022194125
 87       0.000000907200
 88       0.000003823159
 89      -0.000007471274
 90      -0.000004514359
 91      -0.000010892480
 92       0.000000445635
 93       0.000001862805
 94      -0.000003662085
 95       0.000001530683
 96       0.000003692610
 97      -0.000000151065
 98      -0.000000631925
 99       0.000001241615
100       0.000021319171
101      -0.000016299182