[Molden Format]
[Title]
 Molden file created by orca_2mkl for BaseName=/home/smirnovaanastasia2304_2125/_scratch/O2_cc/Tm_O2_cc

[Atoms] AU
Tm   1  69         -0.5085838841        -0.2934669097        -1.6018112396 
O    2   8         -1.5764397765         2.6452953340        -0.6196563171 
O    3   8          3.2599608844        -0.6902168012        -0.6565192048 
[GTO]
  1 0
s   6 1.0 
  1319284.9947909999      2612.7927579715
   586348.8865740000      -709.4442498508
   260599.5051440000      1510.6834110105
   115822.0022860000       316.8056665606
    51476.4454610000       886.9370256752
    22878.4202050000       639.6546354182
s   1 1.0 
    10168.1867580000       721.6767731110
s   1 1.0 
     4519.1941150000       392.8310785418
s   1 1.0 
     2008.5307180000       213.8301550254
s   1 1.0 
      892.6803190000       116.3943936408
s   1 1.0 
      396.7468080000        63.3570829114
s   1 1.0 
      176.3319150000        34.4872277653
s   1 1.0 
       78.3697400000        18.7724690374
s   1 1.0 
       34.8309960000        10.2184379542
s   1 1.0 
       15.4804420000         5.5622129217
s   1 1.0 
        6.8801970000         3.0276854053
s   1 1.0 
        3.0578650000         1.6480630530
s   1 1.0 
        1.3590510000         0.8970918436
s   1 1.0 
        0.6040230000         0.4883151508
s   1 1.0 
        0.2684550000         0.2658053482
s   1 1.0 
        0.1193130000         0.1446858022
s   1 1.0 
        0.0530280000         0.0787569752
s   1 1.0 
        0.0235680000         0.0428698673
p   5 1.0 
    18167.9700320000      4276.3190036639
     7267.1880130000      1622.6508988842
     2906.8752050000      2563.2682837476
     1162.7500820000      2427.3733177812
      465.1000330000      2276.3124957386
p   1 1.0 
      186.0400130000       979.3728025536
p   1 1.0 
       74.4160050000       311.5466079219
p   1 1.0 
       29.7664020000        99.1055591708
p   1 1.0 
       11.9065610000        31.5263007686
p   1 1.0 
        4.7626240000        10.0287766222
p   1 1.0 
        1.9050500000         3.1902378345
p   1 1.0 
        0.7620200000         1.0148411070
p   1 1.0 
        0.3048080000         0.3228293707
p   1 1.0 
        0.1219230000         0.1026944890
p   1 1.0 
        0.0487690000         0.0326678010
p   1 1.0 
        0.0195080000         0.0103921647
d   4 1.0 
     1329.8192350000      6851.9549332394
      483.5706310000      6453.4619104032
      175.8438660000      6042.5378437114
       63.9432240000      3305.1590466818
d   1 1.0 
       23.2520810000       701.9049111231
d   1 1.0 
        8.4553020000       119.5215043070
d   1 1.0 
        3.0746550000        20.3523128069
d   1 1.0 
        1.1180570000         3.4656283475
d   1 1.0 
        0.4065660000         0.5901323645
d   1 1.0 
        0.1478420000         0.1004884817
d   1 1.0 
        0.0537610000         0.0171114939
d   1 1.0 
        0.0195490000         0.0029136544
f   4 1.0 
       39.2338200000      2365.3777040161
       13.0779400000       653.8517677584
        4.3593130000        81.3062960040
        1.4531040000         4.7585868412
f   1 1.0 
        0.4843680000         1.1159502330
f   1 1.0 
        0.1614560000         0.0942154234

  2 0
s   6 1.0 
    27032.3826310000         1.4645050749
     4052.3871392000         1.8244031008
      922.3272271000         2.8547160967
      261.2407098900         4.3654874290
       85.3546413500         5.8940772662
       31.0350352400         6.2963020147
s   1 1.0 
       12.2608607300         4.6698272139
s   1 1.0 
        4.9987076000         2.3826123703
s   1 1.0 
        1.1703108200         0.8019291632
s   1 1.0 
        0.4647474100        -0.4011648063
s   1 1.0 
        0.1850453600         0.2010799377
p   4 1.0 
       63.2749548000         3.0898340730
       14.6270493800         3.3923831935
        4.4501223500         2.9482801524
        1.5275799600         1.7113350234
p   1 1.0 
        0.5293511800         0.6436057935
p   1 1.0 
        0.1747842100         0.1610897223
d   1 1.0 
        2.3140000000        12.3767310624
d   1 1.0 
        0.6450000000         1.3234257612
f   1 1.0 
        1.4280000000        12.7097950062

  3 0
s   6 1.0 
    27032.3826310000         1.4645050749
     4052.3871392000         1.8244031008
      922.3272271000         2.8547160967
      261.2407098900         4.3654874290
       85.3546413500         5.8940772662
       31.0350352400         6.2963020147
s   1 1.0 
       12.2608607300         4.6698272139
s   1 1.0 
        4.9987076000         2.3826123703
s   1 1.0 
        1.1703108200         0.8019291632
s   1 1.0 
        0.4647474100        -0.4011648063
s   1 1.0 
        0.1850453600         0.2010799377
p   4 1.0 
       63.2749548000         3.0898340730
       14.6270493800         3.3923831935
        4.4501223500         2.9482801524
        1.5275799600         1.7113350234
p   1 1.0 
        0.5293511800         0.6436057935
p   1 1.0 
        0.1747842100         0.1610897223
d   1 1.0 
        2.3140000000        12.3767310624
d   1 1.0 
        0.6450000000         1.3234257612
f   1 1.0 
        1.4280000000        12.7097950062

[5D]
[7F]
[9G]
[MO]
 Sym=     1a
 Ene= -2.19032802892223E+03
 Spin= Alpha
 Occup= 1.000000
  1       0.095748880010
  2       0.104044341387
  3       0.178121163762
  4       0.300851678621
  5       0.333543440867
  6       0.166364385159
  7       0.009005169574
  8       0.003392025805
  9      -0.002468953679
 10       0.001635952622
 11      -0.001099558137
 12       0.000738360828
 13      -0.000492376455
 14       0.000332513495
 15      -0.000234971380
 16       0.000174427753
 17      -0.000046514042
 18       0.000011169875
 19      -0.000000433835
 20      -0.000000506374
 21      -0.000000352920
 22       0.000000238334
 23       0.000000712851
 24       0.000000386626
 25      -0.000000313839
 26      -0.000000502988
 27      -0.000000315921
 28       0.000000395391
 29       0.000000586062
 30       0.000000376912
 31      -0.000000607964
 32      -0.000000816037
 33      -0.000000541816
 34       0.000001023367
 35       0.000001255814
 36       0.000000859791
 37      -0.000001775596
 38      -0.000002159551
 39      -0.000001483194
 40       0.000003042002
 41       0.000003901450
 42       0.000002630218
 43      -0.000004851249
 44      -0.000006988132
 45      -0.000004533426
 46       0.000001484664
 47       0.000035523306
 48       0.000016152539
 49       0.000000590143
 50      -0.000004292445
 51      -0.000001722926
 52      -0.000000358173
 53       0.000000636432
 54       0.000000174957
 55      -0.000000033167
 56       0.000000016175
 57       0.000000019536
 58       0.000000013217
 59      -0.000000020153
 60       0.000000177630
 61      -0.000000044532
 62      -0.000000101013
 63      -0.000000027213
 64       0.000000163690
 65      -0.000000421724
 66       0.000000102901
 67       0.000000243390
 68       0.000000056461
 69      -0.000000389629
 70       0.000000870646
 71      -0.000000207107
 72      -0.000000502572
 73      -0.000000110293
 74       0.000000810914
 75      -0.000001748234
 76       0.000000399928
 77       0.000001019851
 78       0.000000188149
 79      -0.000001641730
 80       0.000003268352
 81      -0.000000652687
 82      -0.000001944507
 83      -0.000000188991
 84       0.000003166791
 85      -0.000011548720
 86      -0.000000185947
 87       0.000009289331
 88      -0.000005583133
 89      -0.000012842302
 90       0.000000246968
 91       0.000000096543
 92      -0.000000455525
 93       0.000000583795
 94       0.000000229537
 95       0.000000194241
 96      -0.000000084696
 97      -0.000000046501
 98      -0.000000160455
 99       0.000000173390
100      -0.000000155546
101      -0.000000062598
102      -0.000000061508
103      -0.000000003223
104      -0.000000102673
105      -0.000000285816
106       0.000000129442
107       0.000001023038
108       0.000000363006
109       0.000000435451
110       0.000000108544
111       0.000000705629
112       0.000001867471
113      -0.000000876238
114      -0.000003877067
115      -0.000000795637
116      -0.000002024263
117      -0.000001282745
118      -0.000002982861
119      -0.000006991508
120       0.000003427562
121       0.000000131061
122      -0.000000587281
123       0.000001075469
124      -0.000004510496
125      -0.000014627836
126      -0.000056479466
127       0.000000049402
128      -0.000000210757
129      -0.000000078520
130       0.000001219668
131      -0.000002926422
132      -0.000000931548
133      -0.000006429984
134       0.000019230320
135       0.000006592774
136      -0.000000199180
137      -0.000000100137
138       0.000000264975
139      -0.000000354289
140      -0.000000278940
141      -0.000000108806
142      -0.000000025308
143       0.000000097052
144      -0.000000093161
145      -0.000000145106
146      -0.000000357266
147       0.000000138469
148      -0.000000322643
149      -0.000000388489
150      -0.000000366772
151      -0.000000622822
152       0.000000298759
153       0.000000154157
154      -0.000000712994
155       0.000001349666
156      -0.000003876580
157      -0.000006869782
158      -0.000018056481
159       0.000000689428
160      -0.000000119811
161       0.000000152047
162      -0.000002007906
163       0.000000421977
164      -0.000000410521
165       0.000008439381
166      -0.000000396494
167       0.000002334511
168       0.000000133164
169      -0.000000102084
170       0.000000035121
171      -0.000000254169
172       0.000000105162
173      -0.000000805636
174       0.000000669946
175      -0.000000149734
176       0.000001511164
177      -0.000000529143
178       0.000000314809
179       0.000000365501
180      -0.000000025925
181      -0.000000368985
182       0.000000084246
183       0.000000631104
184      -0.000000203122
 Sym=     1a
 Ene= -3.75336596820486E+02
 Spin= Alpha
 Occup= 1.000000
  1       0.036559985772
  2       0.043962137795
  3       0.076059350172
  4       0.151592895792
  5       0.202331577195
  6       0.066676323822
  7      -0.489098492667
  8      -0.586147246580
  9      -0.084589911046
 10      -0.004771305408
 11       0.004213834805
 12      -0.002972744259
 13       0.002112964838
 14      -0.001472614927
 15       0.001050293188
 16      -0.000784041123
 17       0.000208813350
 18      -0.000050184769
 19       0.000008996694
 20      -0.000014734720
 21      -0.000003865526
 22       0.000013287159
 23      -0.000020313615
 24      -0.000005067206
 25       0.000011234942
 26      -0.000014597252
 27      -0.000003138665
 28      -0.000000279102
 29       0.000000435851
 30       0.000000109366
 31       0.000002676605
 32       0.000000816588
 33       0.000001154945
 34      -0.000004421996
 35      -0.000004536539
 36      -0.000003321100
 37       0.000007724136
 38       0.000008964170
 39       0.000006261492
 40      -0.000013427174
 41      -0.000017282143
 42      -0.000011636180
 43       0.000021451331
 44       0.000032426536
 45       0.000020720918
 46      -0.000006269802
 47      -0.000160836553
 48      -0.000072998168
 49      -0.000002732415
 50       0.000019440163
 51       0.000007785201
 52       0.000001629304
 53      -0.000002889204
 54      -0.000000793250
 55       0.000002490013
 56      -0.000001087355
 57      -0.000002167213
 58       0.000000125732
 59       0.000001202742
 60      -0.000000597187
 61       0.000000128579
 62       0.000000492939
 63      -0.000000141658
 64      -0.000000463155
 65       0.000001940711
 66      -0.000000326374
 67      -0.000001326121
 68       0.000000193990
 69       0.000001839580
 70      -0.000003877981
 71       0.000000861402
 72       0.000002378769
 73       0.000000227357
 74      -0.000003594360
 75       0.000007976222
 76      -0.000001741188
 77      -0.000004756007
 78      -0.000000619217
 79       0.000007528998
 80      -0.000015053189
 81       0.000002801105
 82       0.000009167055
 83       0.000000339623
 84      -0.000014712226
 85       0.000052249264
 86       0.000000944063
 87      -0.000042119217
 88       0.000025506299
 89       0.000058174058
 90      -0.000001118700
 91      -0.000000438261
 92       0.000002082587
 93      -0.000002672075
 94      -0.000001028385
 95      -0.000000872072
 96       0.000000381345
 97       0.000000201441
 98       0.000000731802
 99      -0.000000781851
100       0.000000803829
101       0.000000328008
102       0.000000300090
103       0.000000005185
104       0.000000484306
105       0.000001424930
106      -0.000000645226
107      -0.000004871857
108      -0.000001643875
109      -0.000002108162
110      -0.000000643126
111      -0.000003347504
112      -0.000008807172
113       0.000004162813
114       0.000017603100
115       0.000003582961
116       0.000009207973
117       0.000005867483
118       0.000013553392
119       0.000031732990
120      -0.000015564622
121      -0.000000526176
122       0.000002498943
123      -0.000004805196
124       0.000020818832
125       0.000066648783
126       0.000255294726
127      -0.000000166839
128       0.000000769686
129       0.000000290787
130      -0.000005724280
131       0.000013805582
132       0.000004403451
133       0.000028988667
134      -0.000086824886
135      -0.000029779103
136       0.000000871182
137       0.000000439934
138      -0.000001161307
139       0.000001555135
140       0.000001221031
141       0.000000699455
142       0.000000209820
143      -0.000000696562
144       0.000000754494
145       0.000000946923
146       0.000001512699
147      -0.000000595215
148       0.000001374974
149       0.000001647688
150       0.000001562342
151       0.000002649850
152      -0.000001258213
153      -0.000000614583
154       0.000003022085
155      -0.000005928432
156       0.000017358392
157       0.000030725721
158       0.000081235217
159      -0.000003144461
160       0.000000534862
161      -0.000000698586
162       0.000008952172
163      -0.000001891676
164       0.000001825729
165      -0.000037928198
166       0.000001733124
167      -0.000010513307
168      -0.000000623506
169       0.000000486338
170      -0.000000157830
171       0.000001190581
172      -0.000000477451
173       0.000003650511
174      -0.000003042707
175       0.000000677225
176      -0.000006853816
177       0.000002387819
178      -0.000001426993
179      -0.000001654120
180       0.000000115730
181       0.000001675250
182      -0.000000380802
183      -0.000002862225
184       0.000000913596
 Sym=     1a
 Ene= -3.32387973286005E+02
 Spin= Alpha
 Occup= 1.000000
  1       0.000000806457
  2       0.000001008640
  3       0.000001575623
  4       0.000003764007
  5       0.000003647908
  6       0.000003352534
  7      -0.000017408361
  8      -0.000003316104
  9      -0.000015565746
 10       0.000031092390
 11      -0.000053668936
 12       0.000086824019
 13      -0.000137074336
 14       0.000196142252
 15      -0.000230082963
 16       0.000151482547
 17       0.000052111763
 18      -0.000019513307
 19      -0.341302053920
 20      -0.031491173588
 21      -0.115056113570
 22      -0.452673871440
 23      -0.041767699899
 24      -0.152600803615
 25      -0.283052949339
 26      -0.026116772265
 27      -0.095419852008
 28      -0.013073303679
 29      -0.001209151835
 30      -0.004408421789
 31      -0.005399307007
 32      -0.000492307562
 33      -0.001817569996
 34       0.003706558296
 35       0.000332086567
 36       0.001245166292
 37      -0.002255876519
 38      -0.000189969801
 39      -0.000752504226
 40       0.001416030481
 41       0.000097483635
 42       0.000462800478
 43      -0.000923270046
 44      -0.000033476571
 45      -0.000288543521
 46       0.000674226234
 47      -0.000049289306
 48       0.000178251470
 49      -0.000203589770
 50      -0.000011166483
 51      -0.000065271122
 52       0.000058093381
 53       0.000005546324
 54       0.000019661250
 55      -0.000002381632
 56       0.000000056846
 57      -0.000001787624
 58       0.000004130581
 59      -0.000004865946
 60       0.000001535479
 61      -0.000001027700
 62       0.000000892494
 63      -0.000003441001
 64       0.000001706337
 65      -0.000003405017
 66       0.000004421834
 67      -0.000000873949
 68       0.000008565656
 69      -0.000000340211
 70       0.000007461264
 71      -0.000009813458
 72       0.000001751630
 73      -0.000018683195
 74       0.000000499309
 75      -0.000015097242
 76       0.000020318807
 77      -0.000003437750
 78       0.000038188780
 79      -0.000000360081
 80       0.000025043219
 81      -0.000034578872
 82       0.000006795604
 83      -0.000065878761
 84       0.000000176197
 85      -0.000040856169
 86       0.000059527505
 87      -0.000022447837
 88       0.000126899138
 89      -0.000003549687
 90      -0.000003225130
 91       0.000006005127
 92       0.000001229479
 93       0.000007352347
 94       0.000003315875
 95       0.000002553679
 96      -0.000003640634
 97       0.000000159177
 98      -0.000006108047
 99      -0.000000470621
100      -0.000001061788
101      -0.000002160565
102       0.000000514902
103       0.000002122451
104      -0.000000493393
105      -0.000002772927
106       0.000001326919
107       0.000008693009
108       0.000015061509
109      -0.000004386617
110      -0.000013687528
111      -0.000000068587
112       0.000015458450
113      -0.000008703960
114      -0.000014808541
115      -0.000025598462
116       0.000006105312
117       0.000031661395
118      -0.000000333589
119      -0.000033300845
120       0.000006727904
121      -0.000000122991
122       0.000000621143
123      -0.000001345858
124       0.000009352222
125       0.000031683841
126       0.000098510482
127      -0.000002676397
128      -0.000000650547
129      -0.000001081114
130       0.000009184700
131       0.000014177600
132       0.000008989976
133       0.000002902330
134      -0.000032927673
135      -0.000013683827
136       0.000000668841
137       0.000000636246
138      -0.000000075110
139       0.000000401598
140       0.000001841605
141      -0.000001424428
142      -0.000002175968
143      -0.000006694956
144       0.000007744306
145      -0.000009351727
146       0.000000943115
147      -0.000000672083
148       0.000001388827
149      -0.000000307096
150       0.000001390671
151       0.000003298209
152       0.000000808612
153       0.000002863945
154      -0.000014262034
155       0.000027921285
156      -0.000079505278
157      -0.000126914135
158      -0.000281725698
159       0.000019151551
160      -0.000002302222
161       0.000004678569
162      -0.000058503101
163       0.000006484116
164      -0.000014531649
165       0.000124106188
166      -0.000017480423
167       0.000029184636
168       0.000004713611
169      -0.000004419451
170       0.000000400957
171      -0.000008757900
172       0.000002156305
173      -0.000021861208
174       0.000021038540
175      -0.000002036087
176       0.000041495940
177      -0.000009412030
178       0.000005562123
179       0.000007687180
180      -0.000001048755
181      -0.000007294675
182       0.000001865068
183       0.000011827554
184      -0.000004871660
 Sym=     1a
 Ene= -3.32387524559539E+02
 Spin= Alpha
 Occup= 1.000000
  1       0.000001730096
  2       0.000002039402
  3       0.000003744300
  4       0.000006720964
  5       0.000010849668
  6      -0.000000146763
  7      -0.000017322706
  8      -0.000032277315
  9       0.000002376474
 10      -0.000026543523
 11       0.000050457206
 12      -0.000077970019
 13       0.000123029114
 14      -0.000183571406
 15       0.000210463313
 16      -0.000222760447
 17      -0.000011929275
 18       0.000007740894
 19      -0.072569999746
 20       0.331582767499
 21       0.124513395461
 22      -0.096250430977
 23       0.439784396470
 24       0.165144584772
 25      -0.060183907423
 26       0.274989471736
 27       0.103261951501
 28      -0.002776576459
 29       0.012700284255
 30       0.004769990506
 31      -0.001154115187
 32       0.005245669954
 33       0.001968043696
 34       0.000797144956
 35      -0.003595778060
 36      -0.001347275849
 37      -0.000496041632
 38       0.002181825467
 39       0.000813870603
 40       0.000331065933
 41      -0.001361322277
 42      -0.000501485925
 43      -0.000237373847
 44       0.000866289258
 45       0.000311295899
 46       0.000207140705
 47      -0.000616226274
 48      -0.000210250073
 49      -0.000045828019
 50       0.000202856358
 51       0.000075770753
 52       0.000011966437
 53      -0.000060379225
 54      -0.000023043718
 55      -0.000002962502
 56      -0.000001583676
 57       0.000003254221
 58      -0.000004430685
 59      -0.000004720627
 60       0.000000456391
 61      -0.000000272005
 62      -0.000000219042
 63      -0.000000306175
 64       0.000000247428
 65       0.000001860146
 66       0.000001851354
 67      -0.000004106066
 68       0.000006640747
 69       0.000002731439
 70      -0.000005066415
 71      -0.000004922222
 72       0.000009837820
 73      -0.000016077141
 74      -0.000008157236
 75       0.000011537051
 76       0.000010726632
 77      -0.000021436873
 78       0.000034709972
 79       0.000018579145
 80      -0.000021124968
 81      -0.000018953040
 82       0.000038076791
 83      -0.000061122939
 84      -0.000033891013
 85       0.000026478879
 86       0.000027291603
 87      -0.000050421962
 88       0.000084439087
 89       0.000045305317
 90       0.000001895204
 91       0.000002103208
 92      -0.000006894981
 93       0.000010794789
 94       0.000001326204
 95      -0.000001257403
 96      -0.000001432010
 97       0.000003279064
 98      -0.000005399739
 99      -0.000001758206
100       0.000001606562
101      -0.000001105270
102       0.000001678280
103       0.000002742879
104       0.000001769468
105       0.000002349935
106      -0.000001637731
107      -0.000013075334
108       0.000007535195
109      -0.000012255667
110      -0.000019301770
111      -0.000011961593
112      -0.000017832394
113       0.000011539765
114       0.000011338971
115      -0.000009670778
116       0.000012145018
117       0.000021323153
118       0.000010535240
119       0.000013163437
120      -0.000009801355
121       0.000000018198
122      -0.000000036767
123      -0.000000903742
124       0.000041063895
125       0.000155437787
126       0.000323506017
127       0.000000171937
128       0.000000966028
129       0.000000474555
130      -0.000031195843
131       0.000080266501
132       0.000026239792
133       0.000042669119
134      -0.000101438571
135      -0.000032197589
136       0.000004304528
137       0.000001910960
138      -0.000005621476
139       0.000007222229
140       0.000005768900
141       0.000004652983
142       0.000002507607
143      -0.000004709016
144       0.000006369950
145       0.000007692073
146       0.000009307905
147      -0.000002369273
148       0.000007016888
149       0.000010066796
150       0.000007912443
151       0.000013772155
152      -0.000008908892
153       0.000000665235
154      -0.000003299630
155       0.000006404252
156      -0.000017704027
157      -0.000027498594
158      -0.000058881594
159       0.000004227685
160       0.000000552644
161       0.000001499929
162      -0.000012676283
163       0.000000008223
164      -0.000003765377
165       0.000023346523
166       0.000003811735
167       0.000008618876
168       0.000000945750
169      -0.000001729956
170      -0.000000362734
171      -0.000002122708
172      -0.000000936820
173      -0.000004401702
174       0.000006731564
175       0.000000840455
176       0.000009520811
177       0.000002117130
178       0.000002018091
179       0.000000392787
180       0.000000721318
181      -0.000003330064
182      -0.000001093320
183       0.000003318208
184       0.000003338509
 Sym=     1a
 Ene= -3.32387017906377E+02
 Spin= Alpha
 Occup= 1.000000
  1      -0.000000003876
  2      -0.000000004564
  3      -0.000000008399
  4      -0.000000015000
  5      -0.000000024324
  6       0.000000000473
  7       0.000000035646
  8       0.000000076666
  9      -0.000000005088
 10       0.000000062446
 11      -0.000000120106
 12       0.000000185239
 13      -0.000000291605
 14       0.000000429037
 15      -0.000000496303
 16       0.000000440310
 17       0.000000063976
 18      -0.000000028363
 19       0.094674906623
 20       0.140634871933
 21      -0.319335465745
 22       0.125569104829
 23       0.186526657263
 24      -0.423540586211
 25       0.078516155213
 26       0.116631859611
 27      -0.264832529499
 28       0.003628653866
 29       0.005390207097
 30      -0.012239364098
 31       0.001492677682
 32       0.002217272751
 33      -0.005034748194
 34      -0.001019219925
 35      -0.001513981740
 36       0.003437832994
 37       0.000609510518
 38       0.000905368505
 39      -0.002055939962
 40      -0.000363956038
 41      -0.000540579075
 42       0.001227744234
 43       0.000212624310
 44       0.000315775129
 45      -0.000717387576
 46      -0.000117185171
 47      -0.000173980927
 48       0.000395611496
 49       0.000054286631
 50       0.000080630993
 51      -0.000183116544
 52      -0.000017347383
 53      -0.000025765932
 54       0.000058503376
 55      -0.000001846948
 56       0.000003948110
 57      -0.000004373273
 58      -0.000003209455
 59      -0.000000161644
 60       0.000000610363
 61      -0.000000947320
 62       0.000001205573
 63       0.000000849647
 64      -0.000000030227
 65       0.000000977468
 66       0.000000713458
 67       0.000000444667
 68       0.000000041361
 69      -0.000000600880
 70      -0.000001504700
 71      -0.000000084687
 72      -0.000001375526
 73      -0.000000667388
 74       0.000000685154
 75       0.000003029592
 76      -0.000000815929
 77       0.000003436895
 78       0.000001929674
 79      -0.000001141884
 80      -0.000004820828
 81       0.000001915053
 82      -0.000005891329
 83      -0.000003435755
 84       0.000001675143
 85       0.000002024032
 86      -0.000000787156
 87       0.000002549046
 88       0.000001476875
 89      -0.000000771375
 90       0.000003795617
 91       0.000000659818
 92       0.000003121171
 93       0.000001407740
 94      -0.000001791838
 95      -0.000001053293
 96      -0.000000138603
 97      -0.000000900231
 98      -0.000000419163
 99       0.000000489664
100      -0.000000473133
101       0.000000338877
102       0.000000700850
103       0.000000096616
104      -0.000000489371
105       0.000000144211
106      -0.000000113784
107       0.000003401962
108      -0.000000300038
109      -0.000005458088
110       0.000000835506
111       0.000004302881
112      -0.000001002378
113       0.000002407619
114      -0.000002695325
115       0.000000787050
116       0.000003386054
117       0.000000150402
118      -0.000003161546
119       0.000001077584
120      -0.000001190711
121      -0.000000000135
122       0.000000000608
123       0.000000000016
124      -0.000000047153
125      -0.000000181668
126      -0.000000348208
127       0.000000654515
128       0.000000975499
129      -0.000002211540
130      -0.000002989549
131      -0.000004617156
132       0.000010195594
133       0.000004035025
134       0.000006190028
135      -0.000013722293
136       0.000000778567
137      -0.000000656523
138       0.000001180194
139       0.000000752362
140      -0.000000184419
141      -0.000006872742
142       0.000005580677
143      -0.000010172205
144      -0.000006586613
145       0.000001578301
146      -0.000001417460
147      -0.000000867342
148       0.000003036413
149      -0.000001348899
150      -0.000002184061
151       0.000000193802
152      -0.000001946096
153       0.000000001735
154      -0.000000008634
155       0.000000016990
156      -0.000000049049
157      -0.000000079131
158      -0.000000178212
159       0.000000314007
160       0.000000446429
161      -0.000001013581
162      -0.000000190079
163      -0.000000222471
164       0.000000508181
165       0.000001810077
166       0.000002549043
167      -0.000005796171
168       0.000000831700
169       0.000001745758
170      -0.000000399754
171      -0.000000650814
172      -0.000000776336
173      -0.000002244120
174      -0.000004713574
175       0.000001089224
176       0.000001775205
177       0.000002091578
178      -0.000002183389
179       0.000003201490
180       0.000000055655
181       0.000003033461
182      -0.000001550495
183       0.000001779174
184       0.000001694382
 Sym=     1a
 Ene= -8.72214752605780E+01
 Spin= Alpha
 Occup= 1.000000
  1      -0.017262362391
  2      -0.021056860422
  3      -0.036723676486
  4      -0.074581676467
  5      -0.104788667968
  6      -0.028717342972
  7       0.384542186188
  8       0.688110879935
  9      -0.492131409186
 10      -0.884371314852
 11      -0.024704428102
 12      -0.038749492413
 13       0.026359734570
 14      -0.018336070822
 15       0.013269826549
 16      -0.009942990759
 17       0.002654841531
 18      -0.000639134454
 19      -0.000034981347
 20       0.000045463673
 21       0.000009800407
 22      -0.000052975005
 23       0.000069878102
 24       0.000015294727
 25      -0.000005324598
 26       0.000001387729
 27      -0.000000955489
 28       0.000124684313
 29      -0.000192247070
 30      -0.000048326734
 31       0.000107554414
 32      -0.000044181889
 33       0.000012249111
 34      -0.000055040260
 35      -0.000054169661
 36      -0.000040297474
 37       0.000098264451
 38       0.000107759688
 39       0.000076862015
 40      -0.000166425048
 41      -0.000222767058
 42      -0.000148011978
 43       0.000264166900
 44       0.000414879667
 45       0.000262045920
 46      -0.000070784169
 47      -0.002050459537
 48      -0.000927910891
 49      -0.000035458718
 50       0.000248815171
 51       0.000099497324
 52       0.000020894481
 53      -0.000037177765
 54      -0.000010228249