[Molden Format]
[Title]
 Molden file created by orca_2mkl for BaseName=/home/smirnovaanastasia2304_2125/_scratch/O2_cc/Pm_O2_cc

[Atoms] AU
Pm   1  61         -0.2302461219        -0.6989567846        -1.6983705759 
O    2   8         -1.6614396580         2.9367100012        -0.5160501921 
O    3   8          3.0666230037        -0.5761434832        -0.6635659936 
[GTO]
  1 0
s   6 1.0 
  1028523.6509460000      1938.6121026123
   457121.6226430000      -507.6849850967
   203165.1656190000      1141.5619094338
    90295.6291640000       276.3700689820
    40131.3907400000       711.5996470204
    17836.1736620000       554.3401448036
s   1 1.0 
     7927.1882940000       598.7554407759
s   1 1.0 
     3523.1947970000       325.9211801138
s   1 1.0 
     1565.8643540000       177.4090194577
s   1 1.0 
      695.9397130000        96.5692385535
s   1 1.0 
      309.3065390000        52.5656353870
s   1 1.0 
      137.4695730000        28.6131077292
s   1 1.0 
       61.0975880000        15.5750030871
s   1 1.0 
       27.1544840000         8.4779579498
s   1 1.0 
       12.0686590000         4.6148156268
s   1 1.0 
        5.3638490000         2.5119876491
s   1 1.0 
        2.3839330000         1.3673529323
s   1 1.0 
        1.0595260000         0.7442927799
s   1 1.0 
        0.4709000000         0.4051413865
s   1 1.0 
        0.2092890000         0.2205311257
s   1 1.0 
        0.0930170000         0.1200416175
s   1 1.0 
        0.0413410000         0.0653425119
s   1 1.0 
        0.0183740000         0.0355682810
p   5 1.0 
    13902.5411060000      2568.5145477876
     5561.0164430000      1081.0356736804
     2224.4065770000      1714.7353229019
      889.7626310000      1715.9795287132
      355.9050520000      1644.2651453214
p   1 1.0 
      142.3620210000       700.9431061620
p   1 1.0 
       56.9448080000       222.9758119869
p   1 1.0 
       22.7779230000        70.9304538200
p   1 1.0 
        9.1111690000        22.5635648614
p   1 1.0 
        3.6444680000         7.1776580531
p   1 1.0 
        1.4577870000         2.2832721487
p   1 1.0 
        0.5831150000         0.7263281137
p   1 1.0 
        0.2332460000         0.2310509953
p   1 1.0 
        0.0932980000         0.0734988435
p   1 1.0 
        0.0373190000         0.0233804349
p   1 1.0 
        0.0149280000         0.0074377593
d   4 1.0 
      961.1107520000      3886.1580211301
      349.4948190000      3760.9041730743
      127.0890250000      3496.7670385456
       46.2141910000      1860.8963173302
d   1 1.0 
       16.8051600000       397.6442657049
d   1 1.0 
        6.1109670000        67.7115064157
d   1 1.0 
        2.2221700000        11.5300269891
d   1 1.0 
        0.8080620000         1.9633525042
d   1 1.0 
        0.2938410000         0.3343233977
d   1 1.0 
        0.1068510000         0.0569288771
d   1 1.0 
        0.0388550000         0.0096939814
d   1 1.0 
        0.0141290000         0.0016506883
f   4 1.0 
       25.1300980000       848.4519484560
        8.3766990000       228.5051917205
        2.7922330000        29.8202676408
        0.9307440000         1.8405872106
f   1 1.0 
        0.3102480000         0.4095861926
f   1 1.0 
        0.1034160000         0.0345798006

  2 0
s   6 1.0 
    27032.3826310000         1.4645050749
     4052.3871392000         1.8244031008
      922.3272271000         2.8547160967
      261.2407098900         4.3654874290
       85.3546413500         5.8940772662
       31.0350352400         6.2963020147
s   1 1.0 
       12.2608607300         4.6698272139
s   1 1.0 
        4.9987076000         2.3826123703
s   1 1.0 
        1.1703108200         0.8019291632
s   1 1.0 
        0.4647474100        -0.4011648063
s   1 1.0 
        0.1850453600         0.2010799377
p   4 1.0 
       63.2749548000         3.0898340730
       14.6270493800         3.3923831935
        4.4501223500         2.9482801524
        1.5275799600         1.7113350234
p   1 1.0 
        0.5293511800         0.6436057935
p   1 1.0 
        0.1747842100         0.1610897223
d   1 1.0 
        2.3140000000        12.3767310624
d   1 1.0 
        0.6450000000         1.3234257612
f   1 1.0 
        1.4280000000        12.7097950062

  3 0
s   6 1.0 
    27032.3826310000         1.4645050749
     4052.3871392000         1.8244031008
      922.3272271000         2.8547160967
      261.2407098900         4.3654874290
       85.3546413500         5.8940772662
       31.0350352400         6.2963020147
s   1 1.0 
       12.2608607300         4.6698272139
s   1 1.0 
        4.9987076000         2.3826123703
s   1 1.0 
        1.1703108200         0.8019291632
s   1 1.0 
        0.4647474100        -0.4011648063
s   1 1.0 
        0.1850453600         0.2010799377
p   4 1.0 
       63.2749548000         3.0898340730
       14.6270493800         3.3923831935
        4.4501223500         2.9482801524
        1.5275799600         1.7113350234
p   1 1.0 
        0.5293511800         0.6436057935
p   1 1.0 
        0.1747842100         0.1610897223
d   1 1.0 
        2.3140000000        12.3767310624
d   1 1.0 
        0.6450000000         1.3234257612
f   1 1.0 
        1.4280000000        12.7097950062

[5D]
[7F]
[9G]
[MO]
 Sym=     1a
 Ene= -1.66680866259242E+03
 Spin= Alpha
 Occup= 1.000000
  1       0.082189609442
  2       0.094579854517
  3       0.171614006532
  4       0.299214060896
  5       0.344997837452
  6       0.175738786314
  7       0.010843637990
  8       0.003148765880
  9      -0.002289990509
 10       0.001507290003
 11      -0.001016913287
 12       0.000682763195
 13      -0.000451528306
 14       0.000296673895
 15      -0.000192030933
 16       0.000120420051
 17      -0.000045099286
 18       0.000011836787
 19      -0.000000276120
 20      -0.000000730495
 21      -0.000000405182
 22       0.000000740559
 23       0.000000599245
 24       0.000000485272
 25      -0.000000422485
 26      -0.000000487497
 27      -0.000000341252
 28       0.000000510885
 29       0.000000532731
 30       0.000000387548
 31      -0.000000693481
 32      -0.000000728020
 33      -0.000000528223
 34       0.000000999105
 35       0.000001143854
 36       0.000000803029
 37      -0.000001482107
 38      -0.000001992767
 39      -0.000001322125
 40       0.000001453832
 41       0.000003436181
 42       0.000001952098
 43       0.000000650439
 44      -0.000005017671
 45      -0.000002025739
 46       0.000003463252
 47       0.000010129754
 48       0.000005510085
 49      -0.000000331236
 50      -0.000001496128
 51      -0.000000760206
 52       0.000000044735
 53       0.000000262957
 54       0.000000129603
 55      -0.000000021359
 56       0.000000009188
 57       0.000000008443
 58       0.000000012878
 59      -0.000000017086
 60       0.000000114884
 61      -0.000000035304
 62      -0.000000068265
 63      -0.000000021098
 64       0.000000095515
 65      -0.000000315524
 66       0.000000129680
 67       0.000000178650
 68       0.000000108143
 69      -0.000000226049
 70       0.000000646526
 71      -0.000000252499
 72      -0.000000374007
 73      -0.000000195214
 74       0.000000475080
 75      -0.000001193773
 76       0.000000334751
 77       0.000000760552
 78       0.000000110776
 79      -0.000001001108
 80       0.000001388611
 81       0.000000226888
 82      -0.000001191072
 83       0.000001011451
 84       0.000001759023
 85      -0.000004357131
 86       0.000000723071
 87       0.000002955686
 88      -0.000000423699
 89      -0.000004178524
 90       0.000000324354
 91       0.000000019303
 92      -0.000000365358
 93       0.000000318345
 94       0.000000312147
 95      -0.000000036842
 96      -0.000000018852
 97       0.000000065080
 98      -0.000000088253
 99      -0.000000041776
100      -0.000000150185
101      -0.000000050579
102      -0.000000061568
103       0.000000045031
104      -0.000000066687
105      -0.000000274237
106       0.000000048573
107       0.000000540378
108       0.000000029826
109       0.000000342494
110       0.000000193697
111       0.000000438696
112       0.000001018209
113      -0.000000378881
114      -0.000001740221
115      -0.000000287457
116      -0.000000972213
117      -0.000000196320
118      -0.000001232748
119      -0.000003313931
120       0.000001013467
121       0.000000148403
122      -0.000000689610
123       0.000001311508
124      -0.000004090915
125      -0.000008423366
126      -0.000015389353
127      -0.000000218053
128       0.000000669848
129       0.000000231407
130       0.000001102596
131      -0.000003183954
132      -0.000001080265
133      -0.000001547480
134       0.000005090090
135       0.000001790989
136       0.000000071462
137       0.000000035082
138      -0.000000093031
139       0.000000123301
140       0.000000100293
141      -0.000000649666
142      -0.000000311011
143       0.000000795306
144      -0.000001041624
145      -0.000000933773
146       0.000000066199
147      -0.000000010943
148       0.000000046059
149       0.000000066954
150       0.000000054849
151       0.000000097764
152      -0.000000067127
153       0.000000015103
154      -0.000000051123
155       0.000000042263
156      -0.000000695116
157      -0.000006153988
158      -0.000014739696
159      -0.000000536342
160       0.000000085231
161      -0.000000121813
162      -0.000001011994
163      -0.000000416954
164      -0.000000485374
165       0.000003508655
166       0.000001102689
167       0.000001531162
168      -0.000000247590
169       0.000000281865
170       0.000000015101
171       0.000000467520
172      -0.000000026292
173       0.000000719844
174      -0.000000798698
175      -0.000000032400
176      -0.000001351156
177       0.000000110426
178      -0.000000628764
179      -0.000000564961
180      -0.000000006443
181       0.000000873991
182       0.000000039921
183      -0.000001150390
184      -0.000000070819
 Sym=     1a
 Ene= -2.75613570825179E+02
 Spin= Alpha
 Occup= 1.000000
  1       0.030283174573
  2       0.038285825026
  3       0.070591671195
  4       0.145188436585
  5       0.206550195604
  6       0.093561965324
  7      -0.455753968272
  8      -0.612527249440
  9      -0.107019411456
 10      -0.003768221609
 11       0.003229813185
 12      -0.002307276452
 13       0.001686224295
 14      -0.001156242614
 15       0.000755698099
 16      -0.000476148442
 17       0.000178800978
 18      -0.000047020065
 19      -0.000032042701
 20       0.000001245710
 21      -0.000008980229
 22      -0.000045461390
 23       0.000002732417
 24      -0.000012313976
 25      -0.000035132651
 26       0.000003107524
 27      -0.000009076055
 28      -0.000000682122
 29       0.000000954281
 30       0.000000218525
 31      -0.000000632301
 32       0.000001479389
 33       0.000000466304
 34      -0.000002789894
 35      -0.000003958899
 36      -0.000002580673
 37       0.000005000757
 38       0.000007402891
 39       0.000004761332
 40      -0.000005240219
 41      -0.000013398070
 42      -0.000007484053
 43      -0.000001871413
 44       0.000020185693
 45       0.000008371031
 46      -0.000013418113
 47      -0.000040108953
 48      -0.000021729649
 49       0.000001176092
 50       0.000005894576
 51       0.000002956782
 52      -0.000000139532
 53      -0.000001034196
 54      -0.000000498894
 55       0.000002195108
 56      -0.000001637571
 57      -0.000000718292
 58      -0.000002335301
 59       0.000000961823
 60      -0.000001448011
 61       0.000001296528
 62       0.000000577563
 63       0.000001646136
 64      -0.000000292764
 65       0.000001486410
 66      -0.000000875403
 67      -0.000000797399
 68      -0.000000877443
 69       0.000000754101
 70      -0.000002838367
 71       0.000001383595
 72       0.000001553934
 73       0.000001298236
 74      -0.000001789198
 75       0.000004944754
 76      -0.000001504646
 77      -0.000003107463
 78      -0.000000655258
 79       0.000004022684
 80      -0.000005950857
 81      -0.000000512082
 82       0.000004866910
 83      -0.000003471024
 84      -0.000007099716
 85       0.000017320890
 86      -0.000002869995
 87      -0.000011746460
 88       0.000001684922
 89       0.000016618634
 90      -0.000001279285
 91      -0.000000078879
 92       0.000001455985
 93      -0.000001279590
 94      -0.000001225111
 95       0.000000146400
 96       0.000000073690
 97      -0.000000261686
 98       0.000000353548
 99       0.000000162477
100       0.000000782268
101       0.000000265176
102       0.000000278433
103      -0.000000256570
104       0.000000219837
105       0.000001281038
106      -0.000000178709
107      -0.000002485169
108      -0.000000289051
109      -0.000001443260
110      -0.000000536652
111      -0.000001787460
112      -0.000004609897
113       0.000001525858
114       0.000006997913
115       0.000001177572
116       0.000003889970
117       0.000000737081
118       0.000004921386
119       0.000013313411
120      -0.000004041357
121      -0.000000506241
122       0.000002542602
123      -0.000005075509
124       0.000016244924
125       0.000033278285
126       0.000060861325
127       0.000000886679
128      -0.000002753646
129      -0.000000954165
130      -0.000004369651
131       0.000012693730
132       0.000004314561
133       0.000006047962
134      -0.000020065363
135      -0.000007075708
136      -0.000000317945
137      -0.000000152902
138       0.000000419383
139      -0.000000552504
140      -0.000000438650
141       0.000002656094
142       0.000001266641
143      -0.000003277022
144       0.000004288340
145       0.000003795115
146      -0.000000301037
147       0.000000052252
148      -0.000000210783
149      -0.000000309893
150      -0.000000250646
151      -0.000000442789
152       0.000000307322
153      -0.000000046681
154       0.000000129280
155      -0.000000123461
156       0.000003028671
157       0.000024834106
158       0.000057780677
159       0.000002046901
160      -0.000000352806
161       0.000000452712
162       0.000004602528
163       0.000001694485
164       0.000002118213
165      -0.000013532066
166      -0.000004400627
167      -0.000005970700
168       0.000000992548
169      -0.000001131265
170      -0.000000058336
171      -0.000001878798
172       0.000000105114
173      -0.000002736237
174       0.000002996244
175       0.000000117147
176       0.000005098254
177      -0.000000474490
178       0.000002449674
179       0.000002203294
180       0.000000023961
181      -0.000003402708
182      -0.000000153599
183       0.000004481909
184       0.000000269392
 Sym=     1a
 Ene= -2.46404856074060E+02
 Spin= Alpha
 Occup= 1.000000
  1      -0.000003041048
  2      -0.000003813381
  3      -0.000007223851
  4      -0.000014229724
  5      -0.000021956320
  6      -0.000006381682
  7       0.000042716417
  8       0.000062743975
  9       0.000006648218
 10       0.000021538101
 11      -0.000040879408
 12       0.000056540181
 13      -0.000071651414
 14       0.000058922566
 15       0.000042536125
 16      -0.000231423849
 17       0.000060893758
 18      -0.000012980260
 19      -0.337285067886
 20       0.063960468671
 21      -0.071937883164
 22      -0.461038163358
 23       0.087427642964
 24      -0.098332809967
 25      -0.295769722475
 26       0.056086688064
 27      -0.063083761505
 28      -0.016559102303
 29       0.003140355261
 30      -0.003531718000
 31      -0.005268309832
 32       0.000999570231
 33      -0.001123426719
 34       0.003656951777
 35      -0.000694955692
 36       0.000779330670
 37      -0.002219606293
 38       0.000425489359
 39      -0.000471401158
 40       0.001394919965
 41      -0.000277547160
 42       0.000291781438
 43      -0.000864323530
 44       0.000184585979
 45      -0.000175227472
 46       0.000295880896
 47      -0.000100557517
 48       0.000043418280
 49      -0.000143802939
 50       0.000034789296
 51      -0.000027332763
 52       0.000047986583
 53      -0.000010984012
 54       0.000009398059
 55       0.000006085773
 56      -0.000005641992
 57       0.000000598274
 58      -0.000011350278
 59       0.000002909362
 60      -0.000001030117
 61       0.000000068532
 62       0.000000052839
 63       0.000000679935
 64      -0.000001528435
 65      -0.000001238139
 66       0.000005321109
 67      -0.000001275985
 68       0.000008750351
 69       0.000004020583
 70       0.000004258415
 71      -0.000013113560
 72       0.000003215517
 73      -0.000022453115
 74      -0.000007926356
 75      -0.000007593114
 76       0.000025814323
 77      -0.000007538237
 78       0.000045364030
 79       0.000016100959
 80       0.000008021510
 81      -0.000036084791
 82       0.000012701862
 83      -0.000064727894
 84      -0.000025286855
 85       0.000033245127
 86      -0.000034441211
 87      -0.000005443196
 88      -0.000054079844
 89       0.000005722366
 90      -0.000009594091
 91       0.000017526854
 92      -0.000001086871
 93       0.000028095970
 94       0.000006380872
 95       0.000002827950
 96      -0.000005279438
 97       0.000000363791
 98      -0.000008473173
 99      -0.000001998309
100      -0.000001889898
101      -0.000003004293
102       0.000000972176
103       0.000005141009
104       0.000001472047
105      -0.000003230049
106      -0.000001281270
107       0.000006736426
108       0.000015053414
109      -0.000006749063
110      -0.000026068200
111      -0.000009449215
112       0.000010661299
113       0.000007384764
114       0.000007427256
115       0.000000409911
116       0.000004973106
117      -0.000002670237
118       0.000004630364
119       0.000016270228
120       0.000000637995
121      -0.000000955605
122       0.000004924229
123      -0.000009912459
124       0.000031143410
125       0.000047406307
126       0.000030167252
127       0.000001261317
128      -0.000007682135
129      -0.000003021917
130      -0.000008064751
131       0.000032222987
132       0.000011851408
133      -0.000010436014
134      -0.000000006825
135      -0.000003104071
136      -0.000000752485
137      -0.000000722039
138       0.000002511770
139      -0.000003838427
140      -0.000000530916
141       0.000006573471
142       0.000003984285
143      -0.000013130582
144       0.000018581479
145       0.000007279538
146      -0.000001337017
147      -0.000000701664
148       0.000000098712
149      -0.000002369129
150      -0.000000340019
151       0.000000078878
152       0.000003427357
153      -0.000002323906
154       0.000011908680
155      -0.000022965809
156       0.000042452500
157       0.000024441642
158       0.000197702552
159      -0.000012133884
160      -0.000000940475
161      -0.000004023872
162      -0.000028471665
163      -0.000000469508
164      -0.000008678774
165      -0.000092127574
166      -0.000003765967
167      -0.000029060326
168      -0.000005185681
169       0.000007294633
170       0.000000569750
171       0.000011052443
172       0.000001394214
173       0.000009836119
174      -0.000013510053
175      -0.000000958012
176      -0.000020758268
177      -0.000002152187
178      -0.000013872275
179      -0.000011262100
180      -0.000000584626
181       0.000019298544
182       0.000001944065
183      -0.000024409596
184      -0.000003871487
 Sym=     1a
 Ene= -2.46404310856243E+02
 Spin= Alpha
 Occup= 1.000000
  1      -0.000000327266
  2      -0.000000366185
  3      -0.000000901327
  4      -0.000001039268
  5      -0.000003427597
  6       0.000002045125
  7      -0.000002656799
  8       0.000013617245
  9      -0.000008141285
 10       0.000033396526
 11      -0.000060623501
 12       0.000094944121
 13      -0.000147789913
 14       0.000195443560
 15      -0.000148048592
 16      -0.000017574743
 17       0.000048163974
 18      -0.000011937160
 19      -0.028379514426
 20      -0.316551567788
 21      -0.148384503833
 22      -0.038792746465
 23      -0.432696823903
 24      -0.202828111541
 25      -0.024886919427
 26      -0.277581449097
 27      -0.130117487398
 28      -0.001393672234
 29      -0.015547600649
 30      -0.007287923021
 31      -0.000441808998
 32      -0.004934639487
 33      -0.002312953540
 34       0.000304468738
 35       0.003415327229
 36       0.001600436655
 37      -0.000178932557
 38      -0.002058931622
 39      -0.000963456063
 40       0.000097345086
 41       0.001284377117
 42       0.000596774912
 43      -0.000038805742
 44      -0.000804569313
 45      -0.000367250934
 46      -0.000043925501
 47       0.000455044302
 48       0.000188118520
 49      -0.000002144868
 50      -0.000179331773
 51      -0.000079918039
 52       0.000001763091
 53       0.000056460769
 54       0.000025484783
 55      -0.000000888981
 56      -0.000005338844
 57      -0.000002713256
 58      -0.000001838693
 59      -0.000009999720
 60       0.000001151597
 61       0.000001579614
 62       0.000000035482
 63       0.000001030054
 64       0.000003895495
 65      -0.000003947911
 66      -0.000000524143
 67       0.000004100130
 68      -0.000003728414
 69      -0.000004390599
 70       0.000008882935
 71       0.000000831730
 72      -0.000009045399
 73       0.000007735006
 74       0.000009548735
 75      -0.000018400975
 76      -0.000002459823
 77       0.000019925720
 78      -0.000018528285
 79      -0.000019966704
 80       0.000028539701
 81       0.000006856547
 82      -0.000033046371
 83       0.000035239773
 84       0.000033500411
 85      -0.000006498143
 86      -0.000023822053
 87       0.000022643497
 88      -0.000054846500
 89      -0.000026518027
 90      -0.000006095663
 91       0.000003650220
 92       0.000004565333
 93       0.000001867184
 94      -0.000002189165
 95       0.000001971260
 96      -0.000000984975
 97      -0.000001607293
 98      -0.000000195256
 99       0.000000874984
100      -0.000002989041
101       0.000000159557
102      -0.000001879029
103      -0.000001422956
104      -0.000001894539
105      -0.000004784083
106       0.000001715304
107       0.000017671237
108      -0.000003424178
109       0.000012584342
110       0.000011981655
111       0.000012096791
112       0.000027493822
113      -0.000010257567
114      -0.000010561490
115       0.000006482728
116      -0.000010462136
117      -0.000018312736
118      -0.000011648954
119      -0.000014989804
120       0.000012250247
121       0.000001735316
122      -0.000008981288
123       0.000018242372
124      -0.000059419276
125      -0.000095909032
126      -0.000103018319
127      -0.000006563440
128       0.000013914566
129       0.000004202467
130       0.000027036473
131      -0.000061380690
132      -0.000019107418
133      -0.000008919614
134       0.000007406037
135       0.000000624624
136       0.000003296343
137       0.000001410237
138      -0.000002990089
139       0.000003636612
140       0.000005189386
141      -0.000018616108
142      -0.000008425281
143       0.000019212528
144      -0.000024307865
145      -0.000028414444
146       0.000001181933
147      -0.000001035510
148       0.000001688089
149       0.000000603925
150       0.000001608610
151       0.000003270413
152       0.000000389343
153      -0.000000920917
154       0.000004697166
155      -0.000009084048
156       0.000020689290
157       0.000028167877
158       0.000083663083
159      -0.000004089629
160      -0.000000652406
161      -0.000001504316
162      -0.000001728992
163       0.000006233691
164       0.000002240235
165      -0.000028935589
166      -0.000004851424
167      -0.000010748314
168      -0.000001513666
169       0.000001688970
170      -0.000000045433
171       0.000003010209
172      -0.000000292045
173       0.000002517713
174      -0.000005953092
175      -0.000001803617
176      -0.000006040137
177      -0.000004743973
178      -0.000003050352
179      -0.000003699806
180       0.000000201791
181       0.000004061156
182      -0.000001068814
183      -0.000006759812
184       0.000001842028
 Sym=     1a
 Ene= -2.46404055564873E+02
 Spin= Alpha
 Occup= 1.000000
  1       0.000000000835
  2       0.000000001043
  3       0.000000001995
  4       0.000000003860
  5       0.000000006132
  6       0.000000001518
  7      -0.000000011069
  8      -0.000000018453
  9       0.000000000219
 10      -0.000000009344
 11       0.000000017250
 12      -0.000000025534
 13       0.000000036298
 14      -0.000000040430
 15       0.000000012487
 16       0.000000050424
 17      -0.000000019602
 18       0.000000004423
 19      -0.091981536876
 20      -0.136866475720
 21       0.309572008291
 22      -0.125730444996
 23      -0.187084098550
 24       0.423156947694
 25      -0.080657563414
 26      -0.120016657562
 27       0.271460177333
 28      -0.004519938210
 29      -0.006725562364
 30       0.015212238799
 31      -0.001430067224
 32      -0.002127915264
 33       0.004813037729
 34       0.000986039296
 35       0.001467216027
 36      -0.003318634591
 37      -0.000586416384
 38      -0.000872593233
 39       0.001973688893
 40       0.000351544842
 41       0.000523117114
 42      -0.001183231296
 43      -0.000205613360
 44      -0.000305971124
 45       0.000692082382
 46       0.000114459637
 47       0.000170253770
 48      -0.000385090389
 49      -0.000053270777
 50      -0.000079246903
 51       0.000179240849
 52       0.000016936113
 53       0.000025195566
 54      -0.000056987407
 55       0.000004561151
 56       0.000009105921
 57      -0.000001858491
 58      -0.000003244629
 59      -0.000004165737
 60      -0.000001544181
 61      -0.000002417206
 62       0.000000181549
 63       0.000000703536
 64       0.000001249146
 65      -0.000000917505
 66       0.000000406291
 67      -0.000001132664
 68      -0.000000680091
 69       0.000000295779
 70       0.000001354613
 71       0.000000352953
 72       0.000001033018
 73       0.000000439963
 74      -0.000000667805
 75      -0.000003311873
 76      -0.000002214196
 77      -0.000001615028
 78      -0.000000268547
 79       0.000001960200
 80       0.000005618593
 81       0.000004782737
 82       0.000002046960
 83      -0.000000159927
 84      -0.000003574412
 85      -0.000005132123
 86      -0.000004458788
 87      -0.000001787789
 88       0.000000241393
 89       0.000003288929
 90      -0.000001754255
 91      -0.000000205510
 92      -0.000001507273
 93      -0.000000721343
 94       0.000000803053
 95       0.000000585861
 96       0.000000110323
 97       0.000000475172
 98       0.000000215725
 99      -0.000000278341
100       0.000000442543
101      -0.000000445455
102      -0.000000461881
103      -0.000000268762
104       0.000000405211
105      -0.000000205279
106      -0.000000045768
107      -0.000003396883
108       0.000004157875
109       0.000002962510
110       0.000002804117
111      -0.000002823139
112       0.000001753173
113       0.000001057327
114       0.000003729891
115      -0.000003761731
116      -0.000003785923
117      -0.000002313257
118       0.000003417564
119      -0.000001786856
120      -0.000000427765
121      -0.000000000054
122       0.000000000282
123      -0.000000000592
124       0.000000002163
125       0.000000004080
126       0.000000008652
127      -0.000000633514
128      -0.000000943576
129       0.000002132526
130       0.000001656899
131       0.000002469608
132      -0.000005578560
133      -0.000002894843
134      -0.000004311207
135       0.000009745998
136      -0.000001393754
137       0.000001181334
138      -0.000002096813
139      -0.000001364608
140       0.000000312055
141       0.000004580266
142      -0.000003896935
143       0.000006900157
144       0.000004493801
145      -0.000001021259
146       0.000001512981
147       0.000000914777
148      -0.000003041295
149       0.000001307323
150       0.000002322114
151      -0.000000309524
152       0.000002006530
153       0.000000000618
154      -0.000000003165
155       0.000000006109
156      -0.000000011888
157      -0.000000009259
158      -0.000000052879
159      -0.000000749866
160      -0.000001119535
161       0.000002533033
162       0.000004063713
163       0.000006033497
164      -0.000013642404
165      -0.000004421907
166      -0.000006608996
167       0.000014954187
168      -0.000000555037
169      -0.000000919586
170       0.000000097102
171       0.000000278793
172       0.000000461269
173       0.000005380931
174       0.000008949033
175      -0.000000983335
176      -0.000002757148
177      -0.000004480196
178      -0.000000350290
179       0.000000777199
180       0.000000092770
181       0.000000603910
182      -0.000000163469
183       0.000000249527
184       0.000000417336
 Sym=     1a
 Ene= -6.21997381936071E+01
 Spin= Alpha
 Occup= 1.000000
  1      -0.013997002431
  2      -0.017909226810
  3      -0.033361723999
  4      -0.069669744324
  5      -0.104893114029
  6      -0.044769189774
  7       0.337757597884
  8       0.695342735170
  9      -0.352067312963
 10      -0.940239566809
 11      -0.074036006995
 12      -0.030872108807
 13       0.021099921140
 14      -0.014551778681
 15       0.009745121488
 16      -0.006161039082
 17       0.002325006521
 18      -0.000613089801
 19       0.000117759769
 20      -0.000000092347
 21       0.000034992204
 22       0.000183352108
 23       0.000000510084
 24       0.000054771585
 25       0.000026900548
 26      -0.000004308035
 27       0.000006098481
 28      -0.000467249756
 29      -0.000010637068
 30      -0.000143708586
 31      -0.000264183397
 32       0.000039645082
 33      -0.000061062810
 34      -0.000018806974
 35      -0.000052612149
 36      -0.000028856059
 37       0.000046229278
 38       0.000097533665
 39       0.000056882428
 40      -0.000066291940
 41      -0.000177331475
 42      -0.000098142495
 43      -0.000024924682
 44       0.000260254511
 45       0.000107689887
 46      -0.000172442857
 47      -0.000517451863
 48      -0.000280138722
 49       0.000014320540
 50       0.000076337073
 51       0.000038020530
 52      -0.000001559204
 53      -0.000013447977
 54      -0.000006411316