[Molden Format]
[Title]
 Molden file created by orca_2mkl for BaseName=/home/smirnovaanastasia2304_2125/_scratch/HERBD/Sm_Cl_cc

[Atoms] AU
Sm   1  62          0.2555344370         0.4809749853        -0.6547334136 
Cl   2  17         -1.6033362486        -2.5358726320        -3.7300453781 
Cl   3  17         -1.9097742385         4.5654139334         0.3542820761 
Cl   4  17          4.8241646843        -0.2950372721         0.1931810335 
[GTO]
  1 0
s   6 1.0 
  1062932.5401760000      2015.4033414015
   472414.4623000000      -530.2484535570
   209961.9832450000      1184.0193668322
    93316.4369980000       281.7673601451
    41473.9719990000       732.4402389394
    18432.8764440000       565.1951099566
s   1 1.0 
     8192.3895310000       613.7168364017
s   1 1.0 
     3641.0620140000       334.0651324018
s   1 1.0 
     1618.2497840000       181.8420256088
s   1 1.0 
      719.2221260000        98.9822614294
s   1 1.0 
      319.6542780000        53.8791186583
s   1 1.0 
      142.0685680000        29.3280774453
s   1 1.0 
       63.1415860000        15.9641833483
s   1 1.0 
       28.0629270000         8.6898007217
s   1 1.0 
       12.4724120000         4.7301283855
s   1 1.0 
        5.5432940000         2.5747556920
s   1 1.0 
        2.4636860000         1.4015193847
s   1 1.0 
        1.0949720000         0.7628907560
s   1 1.0 
        0.4866540000         0.4152649871
s   1 1.0 
        0.2162910000         0.2260418893
s   1 1.0 
        0.0961290000         0.1230412999
s   1 1.0 
        0.0427240000         0.0669752004
s   1 1.0 
        0.0189880000         0.0364560415
p   5 1.0 
    14404.1721250000      2744.8949604333
     5761.6688500000      1139.8678591343
     2304.6675400000      1806.9940214775
      921.8670160000      1796.2052381751
      368.7468060000      1716.9611649775
p   1 1.0 
      147.4987230000       732.6986870548
p   1 1.0 
       58.9994890000       233.0775265407
p   1 1.0 
       23.5997960000        74.1438953273
p   1 1.0 
        9.4399180000        23.5857866190
p   1 1.0 
        3.7759670000         7.5028337885
p   1 1.0 
        1.5103870000         2.3867140330
p   1 1.0 
        0.6041550000         0.7592338375
p   1 1.0 
        0.2416620000         0.2415185789
p   1 1.0 
        0.0966650000         0.0768292612
p   1 1.0 
        0.0386660000         0.0244400250
p   1 1.0 
        0.0154660000         0.0077743233
d   4 1.0 
     1004.1583960000      4186.2867605126
      365.1485080000      4040.4728439300
      132.7812750000      3762.5495192093
       48.2841000000      2011.2515485290
d   1 1.0 
       17.5578550000       429.3338542770
d   1 1.0 
        6.3846740000        73.1076554091
d   1 1.0 
        2.3217000000        12.4488937692
d   1 1.0 
        0.8442540000         2.1198154627
d   1 1.0 
        0.3070020000         0.3609667439
d   1 1.0 
        0.1116370000         0.0614659161
d   1 1.0 
        0.0405950000         0.0104663930
d   1 1.0 
        0.0147620000         0.0017822728
f   4 1.0 
       27.1800850000       996.9794071247
        9.0600280000       272.9712358672
        3.0200090000        35.7157423366
        1.0066700000         2.1818001987
f   1 1.0 
        0.3355570000         0.4886233996
f   1 1.0 
        0.1118520000         0.0412523340

  2 0
s   7 1.0 
    69507.9909450000         4.1142286333
    10426.1568800000         4.2286655222
     2373.2334061000         5.8493829067
      671.5642007100         8.3358677251
      218.4199979000        10.0089622684
       77.5722497100         8.2783277553
       28.8888152800         2.9822029766
s   1 1.0 
      127.1052718500        26.9794296956
s   1 1.0 
       39.3395829600        11.1952141621
s   1 1.0 
        7.6740680000         3.2860890225
s   1 1.0 
        3.8745627600        -1.9682357562
s   1 1.0 
        1.8385832600         1.1253110111
s   1 1.0 
        0.5022905800        -0.4252324193
s   1 1.0 
        0.1796272300         0.1966478587
p   6 1.0 
      666.5042328400        13.1758105786
      157.6424169000        16.0544655669
       50.2625209800        17.4320614645
       18.5360781100        14.3789566857
        7.2940532800         7.6571902731
        2.9433249000         1.9874071930
p   1 1.0 
        1.0404970800         1.4979287975
p   1 1.0 
        0.3845641500        -0.4316692201
p   1 1.0 
        0.1306964300         0.1120133392
d   2 1.0 
        4.6100000000         7.5524217504
        1.0110000000         2.6539585854
d   1 1.0 
        0.3390000000         0.4293579962
f   1 1.0 
        0.7060000000         2.6050175686

  3 0
s   7 1.0 
    69507.9909450000         4.1142286333
    10426.1568800000         4.2286655222
     2373.2334061000         5.8493829067
      671.5642007100         8.3358677251
      218.4199979000        10.0089622684
       77.5722497100         8.2783277553
       28.8888152800         2.9822029766
s   1 1.0 
      127.1052718500        26.9794296956
s   1 1.0 
       39.3395829600        11.1952141621
s   1 1.0 
        7.6740680000         3.2860890225
s   1 1.0 
        3.8745627600        -1.9682357562
s   1 1.0 
        1.8385832600         1.1253110111
s   1 1.0 
        0.5022905800        -0.4252324193
s   1 1.0 
        0.1796272300         0.1966478587
p   6 1.0 
      666.5042328400        13.1758105786
      157.6424169000        16.0544655669
       50.2625209800        17.4320614645
       18.5360781100        14.3789566857
        7.2940532800         7.6571902731
        2.9433249000         1.9874071930
p   1 1.0 
        1.0404970800         1.4979287975
p   1 1.0 
        0.3845641500        -0.4316692201
p   1 1.0 
        0.1306964300         0.1120133392
d   2 1.0 
        4.6100000000         7.5524217504
        1.0110000000         2.6539585854
d   1 1.0 
        0.3390000000         0.4293579962
f   1 1.0 
        0.7060000000         2.6050175686

  4 0
s   7 1.0 
    69507.9909450000         4.1142286333
    10426.1568800000         4.2286655222
     2373.2334061000         5.8493829067
      671.5642007100         8.3358677251
      218.4199979000        10.0089622684
       77.5722497100         8.2783277553
       28.8888152800         2.9822029766
s   1 1.0 
      127.1052718500        26.9794296956
s   1 1.0 
       39.3395829600        11.1952141621
s   1 1.0 
        7.6740680000         3.2860890225
s   1 1.0 
        3.8745627600        -1.9682357562
s   1 1.0 
        1.8385832600         1.1253110111
s   1 1.0 
        0.5022905800        -0.4252324193
s   1 1.0 
        0.1796272300         0.1966478587
p   6 1.0 
      666.5042328400        13.1758105786
      157.6424169000        16.0544655669
       50.2625209800        17.4320614645
       18.5360781100        14.3789566857
        7.2940532800         7.6571902731
        2.9433249000         1.9874071930
p   1 1.0 
        1.0404970800         1.4979287975
p   1 1.0 
        0.3845641500        -0.4316692201
p   1 1.0 
        0.1306964300         0.1120133392
d   2 1.0 
        4.6100000000         7.5524217504
        1.0110000000         2.6539585854
d   1 1.0 
        0.3390000000         0.4293579962
f   1 1.0 
        0.7060000000         2.6050175686

[5D]
[7F]
[9G]
[MO]
 Sym=     1a
 Ene= -1.72770589374654E+03
 Spin= Alpha
 Occup= 1.000000
  1       0.083754244478
  2       0.095681050519
  3       0.172393932290
  4       0.299419930857
  5       0.343686698053
  6       0.174637045379
  7       0.010623431101
  8       0.003174842300
  9      -0.002310914429
 10       0.001523510688
 11      -0.001028978494
 12       0.000693773369
 13      -0.000464122981
 14       0.000313909112
 15      -0.000209027663
 16       0.000116992215
 17      -0.000037433752
 18       0.000009170835
 19      -0.000000069653
 20      -0.000000013713
 21       0.000000154984
 22       0.000000065143
 23       0.000000027446
 24      -0.000000153898
 25      -0.000000058010
 26      -0.000000021692
 27       0.000000137506
 28       0.000000072574
 29       0.000000030608
 30      -0.000000176214
 31      -0.000000107911
 32      -0.000000047057
 33       0.000000265277
 34       0.000000174835
 35       0.000000075899
 36      -0.000000432906
 37      -0.000000301464
 38      -0.000000125492
 39       0.000000751537
 40       0.000000519528
 41       0.000000202889
 42      -0.000001313094
 43      -0.000000745751
 44      -0.000000375960
 45       0.000001936193
 46       0.000000666294
 47       0.000000668942
 48      -0.000001799296
 49      -0.000000083380
 50       0.000000096389
 51       0.000000169472
 52      -0.000000016169
 53      -0.000000051744
 54       0.000000044170
 55      -0.000000130753
 56       0.000000074976
 57       0.000000219411
 58       0.000000030759
 59      -0.000000128687
 60       0.000000220498
 61      -0.000000161608
 62      -0.000000333670
 63      -0.000000043380
 64       0.000000175845
 65      -0.000000395927
 66       0.000000312459
 67       0.000000563372
 68       0.000000064253
 69      -0.000000284653
 70       0.000000751161
 71      -0.000000616957
 72      -0.000001048955
 73      -0.000000117920
 74       0.000000512958
 75      -0.000001479127
 76       0.000001230886
 77       0.000002057328
 78       0.000000229050
 79      -0.000000992461
 80       0.000002749148
 81      -0.000002307777
 82      -0.000003822142
 83      -0.000000426561
 84       0.000001822806
 85      -0.000003775006
 86       0.000003111055
 87       0.000005109314
 88       0.000000549844
 89      -0.000002508546
 90       0.000000083011
 91       0.000000115460
 92      -0.000000084767
 93       0.000000076510
 94       0.000000236574
 95       0.000000134740
 96      -0.000000136324
 97      -0.000000181925
 98      -0.000000032772
 99       0.000000063526
100      -0.000000053922
101      -0.000000114157
102      -0.000000155311
103       0.000000088144
104      -0.000000224079
105      -0.000000348840
106       0.000000094637
107       0.000000378324
108       0.000000792054
109       0.000001073408
110      -0.000000619224
111       0.000001576313
112       0.000002430844
113      -0.000000657264
114      -0.000000948759
115      -0.000001521630
116      -0.000002162094
117       0.000001238201
118      -0.000003443396
119      -0.000005207156
120       0.000001360224
121       0.000000105529
122      -0.000000119977
123       0.000000116383
124      -0.000000900356
125      -0.000001928959
126      -0.000001769147
127      -0.000000749950
128      -0.000006404472
129       0.000000066287
130       0.000000114490
131       0.000000113994
132      -0.000000432018
133      -0.000000741609
134      -0.000000741670
135      -0.000000366673
136      -0.000000705732
137      -0.000000697122
138      -0.000000592569
139      -0.000001719680
140      -0.000001781745
141       0.000000031765
142      -0.000000298847
143      -0.000000418186
144       0.000000059437
145      -0.000000140041
146       0.000000095749
147       0.000001423744
148       0.000002101180
149      -0.000000446453
150       0.000000989818
151      -0.000000518960
152       0.000000472468
153       0.000000752347
154      -0.000000534654
155       0.000001038232
156       0.000000526553
157      -0.000000036964
158       0.000000100268
159      -0.000000113959
160       0.000000110410
161      -0.000000851957
162      -0.000001818724
163      -0.000001657826
164      -0.000000802255
165      -0.000006670358
166       0.000000079576
167      -0.000000145919
168      -0.000000037904
169      -0.000000494817
170       0.000000910815
171       0.000000234338
172      -0.000000384332
173       0.000000682332
174       0.000000176962
175      -0.000001293378
176       0.000002382722
177       0.000000401778
178       0.000000281257
179      -0.000000015550
180      -0.000000275805
181       0.000000182338
182       0.000000340146
183      -0.000001235297
184      -0.000000157059
185       0.000001115735
186      -0.000001009979
187      -0.000001682770
188       0.000000501585
189      -0.000000368330
190       0.000000687182
191       0.000000420269
192       0.000000504091
193       0.000001179879
194      -0.000000097868
195       0.000000102262
196      -0.000000116242
197       0.000000112685
198      -0.000000870477
199      -0.000001860955
200      -0.000001699287
201      -0.000000746084
202      -0.000006392080
203      -0.000000167142
204       0.000000032773
205      -0.000000029521
206       0.000001066458
207      -0.000000206009
208       0.000000188088
209       0.000000920472
210      -0.000000216922
211       0.000000131869
212       0.000002502283
213      -0.000000768990
214       0.000000048888
215       0.000000287264
216      -0.000000236639
217      -0.000000101700
218      -0.000000355818
219       0.000000133144
220      -0.000001323775
221       0.000001043112
222       0.000000207983
223       0.000001944339
224      -0.000000682967
225       0.000000425610
226       0.000000840296
227      -0.000000141211
228      -0.000000541143
229       0.000000128244
230       0.000001037961
231      -0.000000612124
 Sym=     1a
 Ene= -2.87125760443447E+02
 Spin= Alpha
 Occup= 1.000000
  1       0.030995100595
  2       0.038937656072
  3       0.071243484845
  4       0.145978343434
  5       0.206181072055
  6       0.090528390028
  7      -0.459954940109
  8      -0.609612543556
  9      -0.104108160312
 10      -0.003885768221
 11       0.003371412556
 12      -0.002415705667
 13       0.001774388959
 14      -0.001249731699
 15       0.000839367041
 16      -0.000472256172
 17       0.000151329304
 18      -0.000037161312
 19      -0.000000117675
 20      -0.000001091462
 21       0.000000840796
 22      -0.000000096870
 23      -0.000001506753
 24       0.000001024519
 25       0.000000077159
 26      -0.000001198927
 27       0.000000470764
 28       0.000000040344
 29      -0.000000183067
 30       0.000000044393
 31       0.000000258316
 32       0.000000091952
 33      -0.000000644339
 34      -0.000000629389
 35      -0.000000272857
 36       0.000001570447
 37       0.000001153405
 38       0.000000472114
 39      -0.000002887870
 40      -0.000002058556
 41      -0.000000788618
 42       0.000005218402
 43       0.000003023511
 44       0.000001515194
 45      -0.000007861777
 46      -0.000002680939
 47      -0.000002733118
 48       0.000007248409
 49       0.000000332115
 50      -0.000000398505
 51      -0.000000669318
 52       0.000000066721
 53       0.000000212926
 54      -0.000000182678
 55       0.000016165807
 56      -0.000008923397
 57      -0.000027951263
 58      -0.000004209761
 59       0.000016500147
 60      -0.000000742064
 61       0.000000432435
 62       0.000001080057
 63       0.000000070200
 64      -0.000000658342
 65       0.000000918644
 66      -0.000000875977
 67      -0.000001209193
 68      -0.000000136528
 69       0.000000496922
 70      -0.000002829489
 71       0.000002318052
 72       0.000003937764
 73       0.000000426559
 74      -0.000001926995
 75       0.000005979205
 76      -0.000004982255
 77      -0.000008318956
 78      -0.000000925501
 79       0.000004005379
 80      -0.000011190006
 81       0.000009400778
 82       0.000015560234
 83       0.000001735292
 84      -0.000007412056
 85       0.000015311581
 86      -0.000012614146
 87      -0.000020712452
 88      -0.000002226655
 89       0.000010175143
 90      -0.000000314568
 91      -0.000000496274
 92       0.000000310381
 93      -0.000000318516
 94      -0.000000953610
 95      -0.000000550126
 96       0.000000557561
 97       0.000000743129
 98       0.000000134330
 99      -0.000000258506
100       0.000000251434
101       0.000000537107
102       0.000000747432
103      -0.000000406743
104       0.000001040129
105       0.000001648032
106      -0.000000449373
107      -0.000001574792
108      -0.000003302470
109      -0.000004479056
110       0.000002580078
111      -0.000006566697
112      -0.000010133332
113       0.000002740933
114       0.000003877556
115       0.000006217821
116       0.000008837930
117      -0.000005058021
118       0.000014069601
119       0.000021280928
120      -0.000005559080
121      -0.000000182824
122       0.000000263445
123      -0.000000433146
124       0.000003270724
125       0.000007240957
126       0.000006720331
127       0.000002718688
128       0.000025865891
129      -0.000000279856
130      -0.000000482535
131      -0.000000481450
132       0.000001770836
133       0.000003040934
134       0.000003042141
135       0.000001453531
136       0.000002814414
137       0.000002777314
138       0.000002340748
139       0.000006903782
140       0.000007153441
141      -0.000000119254
142       0.000001247901
143       0.000001754376
144      -0.000000257812
145       0.000000600421
146      -0.000000395887
147      -0.000005829313
148      -0.000008608755
149       0.000001832149
150      -0.000004056239
151       0.000002119452
152      -0.000001929824
153      -0.000003075231
154       0.000002187536
155      -0.000004243584
156      -0.000002153622
157       0.000000149918
158      -0.000000173484
159       0.000000249975
160      -0.000000410605
161       0.000003092363
162       0.000006823011
163       0.000006295382
164       0.000002971143
165       0.000027005209
166      -0.000000334562
167       0.000000614531
168       0.000000158824
169       0.000002024167
170      -0.000003726210
171      -0.000000957642
172       0.000001516481
173      -0.000002684823
174      -0.000000697303
175       0.000005208632
176      -0.000009589286
177      -0.000001606111
178      -0.000001172687
179       0.000000052532
180       0.000001142874
181      -0.000000771894
182      -0.000001428744
183       0.000005052769
184       0.000000644618
185      -0.000004561404
186       0.000004132805
187       0.000006885509
188      -0.000002046504
189       0.000001502649
190      -0.000002803255
191      -0.000001713067
192      -0.000002058435
193      -0.000004815336
194       0.000000399023
195      -0.000000176969
196       0.000000255006
197      -0.000000419046
198       0.000003159423
199       0.000006980019
200       0.000006449425
201       0.000002720819
202       0.000025840057
203       0.000000704430
204      -0.000000137358
205       0.000000124090
206      -0.000004368107
207       0.000000844112
208      -0.000000769050
209      -0.000003649925
210       0.000000869468
211      -0.000000516735
212      -0.000010047187
213       0.000003116147
214      -0.000000164247
215      -0.000001200154
216       0.000000983027
217       0.000000411059
218       0.000001501611
219      -0.000000561609
220       0.000005419135
221      -0.000004266130
222      -0.000000849116
223      -0.000007961294
224       0.000002799615
225      -0.000001737096
226      -0.000003431658
227       0.000000577470
228       0.000002208029
229      -0.000000525808
230      -0.000004238986
231       0.000002502571
 Sym=     1a
 Ene= -2.56475913415974E+02
 Spin= Alpha
 Occup= 1.000000
  1      -0.000000065641
  2      -0.000000088126
  3      -0.000000134809
  4      -0.000000371956
  5      -0.000000307306
  6      -0.000000524336
  7       0.000001947339
  8       0.000000183247
  9       0.000001732571
 10      -0.000004375813
 11       0.000007722539
 12      -0.000012353168
 13       0.000019562744
 14      -0.000027036491
 15       0.000020783837
 16      -0.000000229912
 17      -0.000004122940
 18       0.000001502132
 19       0.203076818219
 20      -0.263846163410
 21      -0.114128966175
 22       0.276663792640
 23      -0.359453322504
 24      -0.155484927130
 25       0.176954034734
 26      -0.229906504157
 27      -0.099447879689
 28       0.009686161425
 29      -0.012583476040
 30      -0.005444402016
 31       0.003178931494
 32      -0.004132384393
 33      -0.001785098533
 34      -0.002206336222
 35       0.002870522313
 36       0.001237310514
 37       0.001346311260
 38      -0.001756336453
 39      -0.000751898089
 40      -0.000862694682
 41       0.001133422451
 42       0.000476755649
 43       0.000567961852
 44      -0.000754712437
 45      -0.000308310846
 46      -0.000325602770
 47       0.000433462614
 48       0.000174482846
 49       0.000117037663
 50      -0.000152354294
 51      -0.000065996946
 52      -0.000031980753
 53       0.000040924994
 54       0.000018616876
 55       0.000000310946
 56      -0.000000049340
 57       0.000000042918
 58       0.000000469027
 59       0.000000358333
 60       0.000000522191
 61       0.000001638103
 62      -0.000000059649
 63       0.000002255381
 64       0.000001948706
 65      -0.000001714014
 66      -0.000004751167
 67      -0.000000247726
 68      -0.000007188678
 69      -0.000005852778
 70       0.000004137641
 71       0.000011490177
 72       0.000000328898
 73       0.000017154219
 74       0.000014158927
 75      -0.000008712432
 76      -0.000024356686
 77      -0.000000692705
 78      -0.000036210631
 79      -0.000029931338
 80       0.000015021395
 81       0.000042190646
 82       0.000001037812
 83       0.000062395354
 84       0.000051750531
 85      -0.000012576709
 86      -0.000031564590
 87       0.000002078399
 88      -0.000047777063
 89      -0.000040510974
 90       0.000000428051
 91       0.000001028176
 92      -0.000000505383
 93       0.000001387313
 94       0.000001409447
 95       0.000000783996
 96       0.000001943480
 97       0.000000033520
 98       0.000003073128
 99       0.000002496548
100      -0.000000195859
101       0.000002489837
102      -0.000001092363
103      -0.000001374136
104       0.000001205773
105      -0.000000109659
106       0.000000167533
107       0.000008975743
108      -0.000022679200
109       0.000007691486
110       0.000019647431
111      -0.000002377996
112       0.000004241520
113       0.000006206160
114      -0.000008702416
115       0.000021881585
116      -0.000008812354
117      -0.000016781652
118       0.000001200852
119      -0.000006548847
120      -0.000007237449
121      -0.000000320789
122       0.000000460410
123      -0.000000779365
124       0.000005777732
125       0.000012296169
126       0.000009978918
127      -0.000007359739
128       0.000013091342
129      -0.000001368750
130      -0.000001708092
131      -0.000001893867
132       0.000008135730
133       0.000010916381
134       0.000011836440
135       0.000011179963
136       0.000018426807
137       0.000018951577
138       0.000004784519
139       0.000009023075
140       0.000008748788
141       0.000001241534
142       0.000003499975
143       0.000004465214
144      -0.000000538200
145       0.000003905807
146      -0.000005789932
147      -0.000016807083
148      -0.000023984267
149       0.000005019453
150      -0.000017760988
151       0.000004209644
152      -0.000005847858
153      -0.000005702776
154       0.000000853215
155      -0.000012036249
156      -0.000004965247
157       0.000004186710
158       0.000000631874
159      -0.000000906411
160       0.000001532521
161      -0.000011314438
162      -0.000023940266
163      -0.000019164643
164       0.000013001638
165      -0.000038734447
166       0.000002651637
167      -0.000005066870
168      -0.000001229681
169      -0.000016202280
170       0.000030793633
171       0.000007544926
172      -0.000024507753
173       0.000045746434
174       0.000011623359
175      -0.000013701407
176       0.000029671800
177       0.000007642432
178       0.000006033997
179       0.000002912299
180      -0.000004148117
181       0.000007087118
182       0.000010181155
183      -0.000028936413
184      -0.000012983483
185       0.000020567618
186      -0.000032585220
187      -0.000047755431
188       0.000009016705
189      -0.000006967891
190       0.000013445490
191       0.000006975094
192       0.000009844445
193       0.000023506547
194      -0.000003697966
195      -0.000000414619
196       0.000000594892
197      -0.000001006315
198       0.000007441616
199       0.000015778612
200       0.000012674115
201      -0.000009433746
202       0.000020478017
203       0.000003704684
204      -0.000000448468
205       0.000000789637
206      -0.000022851504
207       0.000003100875
208      -0.000004652965
209      -0.000035335929
210       0.000006265141
211      -0.000006151678
212      -0.000018686860
213       0.000001032381
214      -0.000004509334
215      -0.000003535548
216       0.000003102281
217      -0.000000764761
218       0.000007837807
219      -0.000001940785
220       0.000018850455
221      -0.000014311261
222       0.000003149578
223      -0.000037333395
224       0.000011202721
225      -0.000006471785
226      -0.000008816171
227       0.000000523362
228       0.000009117940
229      -0.000001948335
230      -0.000015115501
231       0.000003451629
 Sym=     1a
 Ene= -2.56473584664264E+02
 Spin= Alpha
 Occup= 1.000000
  1       0.000000007907
  2       0.000000012084
  3       0.000000011684
  4       0.000000061107
  5       0.000000000341
  6       0.000000155213
  7      -0.000000470615
  8       0.000000301154
  9      -0.000000724189
 10       0.000001756401
 11      -0.000003098563
 12       0.000005018873
 13      -0.000008116700
 14       0.000011641370
 15      -0.000009548163
 16       0.000000848016
 17       0.000001252917
 18      -0.000000404528
 19       0.268689735380
 20       0.124525977942
 21       0.190214214627
 22       0.366053065973
 23       0.169649629960
 24       0.259140930809
 25       0.234120376326
 26       0.108504609313
 27       0.165741412407
 28       0.012811546296
 29       0.005937502083
 30       0.009069924287
 31       0.004207459464
 32       0.001950120316
 33       0.002978207816
 34      -0.002918318220
 35      -0.001352776708
 36      -0.002065265933
 37       0.001779882313
 38       0.000825404294
 39       0.001258794271
 40      -0.001139349899
 41      -0.000529052535
 42      -0.000804525083
 43       0.000750310940
 44       0.000349100941
 45       0.000528363155
 46      -0.000431404102
 47      -0.000200123342
 48      -0.000302707540
 49       0.000155238357
 50       0.000072209383
 51       0.000110101942
 52      -0.000042827416
 53      -0.000019921506
 54      -0.000030558205
 55      -0.000000267094
 56      -0.000000177585
 57       0.000000072271
 58      -0.000000059253
 59       0.000000230800
 60      -0.000001477566
 61      -0.000000525099
 62      -0.000001937860
 63       0.000002267693
 64      -0.000001910983
 65       0.000004711912
 66       0.000001741095
 67       0.000006087717
 68      -0.000007025585
 69       0.000005799682
 70      -0.000010976292
 71      -0.000003975156
 72      -0.000014360812
 73       0.000016620120
 74      -0.000013884759
 75       0.000023091490
 76       0.000008359812
 77       0.000030413950
 78      -0.000035135499
 79       0.000029453548
 80      -0.000040064594
 81      -0.000014502482
 82      -0.000052995376
 83       0.000061141796
 84      -0.000051368532
 85       0.000031496181
 86       0.000010327791
 87       0.000040387758
 88      -0.000047997945
 89       0.000040241358
 90      -0.000000238711
 91       0.000000144641
 92      -0.000000616663
 93       0.000000920201
 94      -0.000001068332
 95      -0.000002030869
 96      -0.000000716054
 97      -0.000002493542
 98       0.000002944424
 99      -0.000002381804
100       0.000000690608
101       0.000000321294
102      -0.000001398639
103       0.000000597491
104      -0.000001381089
105       0.000000707937
106      -0.000000815632
107      -0.000017010811
108      -0.000004454472
109       0.000016050916
110      -0.000002718213
111       0.000016827178
112      -0.000008554032
113       0.000010114567
114       0.000016160939
115       0.000006603189
116      -0.000017060408
117       0.000006147834
118      -0.000014796589
119       0.000008339862
120      -0.000014933411
121       0.000000631466
122      -0.000000906489
123       0.000001534999
124      -0.000011397432
125      -0.000024327372
126      -0.000019985698
127       0.000012004268
128      -0.000035973475
129       0.000002033521
130       0.000003589499
131       0.000003588235
132      -0.000012873239
133      -0.000022191485
134      -0.000022287973
135      -0.000020895871
136      -0.000033831525
137      -0.000034347467
138      -0.000014973121
139      -0.000016449990
140      -0.000018453205
141      -0.000002197820
142      -0.000005295390
143      -0.000010001989
144       0.000003832735
145      -0.000005727580
146       0.000010430741
147       0.000027925978
148       0.000049503387
149      -0.000017434154
150       0.000028946466
151      -0.000008117270
152       0.000007508150
153       0.000014264609
154      -0.000011797083
155       0.000018276002
156       0.000010104992
157       0.000001028271
158      -0.000000047800
159       0.000000068595
160      -0.000000116054
161       0.000000859332
162       0.000001827995
163       0.000001494985
164      -0.000000716763
165       0.000003339062
166      -0.000000360431
167       0.000000300953
168      -0.000000016249
169       0.000001803529
170      -0.000001961886
171      -0.000000151167
172       0.000000706186
173      -0.000003581165
174      -0.000001526208
175       0.000005091755
176      -0.000000931233
177       0.000001586389
178      -0.000001069652
179      -0.000000438792
180      -0.000000149865
181       0.000000112719
182      -0.000000914674
183       0.000003600158
184       0.000001611705
185      -0.000000727397
186       0.000001244428
187       0.000003345971
188       0.000000697465
189       0.000002507413
190      -0.000002292641
191       0.000002677583
192       0.000000330385
193      -0.000002970513
194      -0.000005107873
195      -0.000000536970
196       0.000000770619
197      -0.000001304097
198       0.000009661259
199       0.000020554358
200       0.000016743181
201      -0.000009965907
202       0.000034467611
203       0.000004595306
204      -0.000000924609
205       0.000000750695