[Molden Format]
[Title]
 Molden file created by orca_2mkl for BaseName=/home/smirnovaanastasia2304_2125/_scratch/HERBD/Ho_OH_cc

[Atoms] AU
Ho   1  67         -0.2864616949         0.4126235911        -0.4191450360 
O    2   8         -1.8581733767         3.7573783769        -0.1918412177 
O    3   8         -1.7869684959        -2.3732144550        -2.3089996713 
O    4   8          2.8791961863        -0.2670258616         1.3223585389 
H    5   1          4.4253814474        -0.6085900809         2.1791660372 
H    6   1         -2.6091845574         5.3887411538        -0.0562590367 
H    7   1         -2.5238445251        -3.7346487509        -3.2287010347 
[GTO]
  1 0
s   6 1.0 
  1243224.0362390000      2430.7883883751
   552544.0161060001      -654.1975952983
   245575.1182690000      1411.8065153980
   109144.4970090000       307.3508470299
    48508.6653370000       841.1959093739
    21559.4068170000       618.6822587502
s   1 1.0 
     9581.9585850000       690.2410900848
s   1 1.0 
     4258.6482600000       375.7196600467
s   1 1.0 
     1892.7325600000       204.5158785436
s   1 1.0 
      841.2144710000       111.3243437065
s   1 1.0 
      373.8730980000        60.5972973132
s   1 1.0 
      166.1658210000        32.9849906635
s   1 1.0 
       73.8514760000        17.9547547325
s   1 1.0 
       32.8228780000         9.7733305173
s   1 1.0 
       14.5879460000         5.3199273619
s   1 1.0 
        6.4835320000         2.8958018167
s   1 1.0 
        2.8815700000         1.5762749461
s   1 1.0 
        1.2806980000         0.8580155144
s   1 1.0 
        0.5691990000         0.4670444209
s   1 1.0 
        0.2529770000         0.2542265306
s   1 1.0 
        0.1124340000         0.1383831902
s   1 1.0 
        0.0499710000         0.0753266446
s   1 1.0 
        0.0222090000         0.0410021703
p   5 1.0 
    17047.2980980000      3781.2112013816
     6818.9192390000      1471.3063683664
     2727.5676960000      2326.2798005570
     1091.0270780000      2234.2132780884
      436.4108310000      2107.4020968708
p   1 1.0 
      174.5643330000       904.4498260556
p   1 1.0 
       69.8257330000       287.7129878901
p   1 1.0 
       27.9302930000        91.5238862028
p   1 1.0 
       11.1721170000        29.1145064205
p   1 1.0 
        4.4688470000         9.2615664136
p   1 1.0 
        1.7875390000         2.9461814806
p   1 1.0 
        0.7150160000         0.9372054126
p   1 1.0 
        0.2860060000         0.2981322914
p   1 1.0 
        0.1144020000         0.0948379394
p   1 1.0 
        0.0457610000         0.0301688997
p   1 1.0 
        0.0183040000         0.0095967150
d   4 1.0 
     1232.4390880000      5979.7836619149
      448.1596690000      5676.5811931057
      162.9671520000      5311.3346199687
       59.2607830000      2889.9578560975
d   1 1.0 
       21.5493750000       614.4418263873
d   1 1.0 
        7.8361370000       104.6281674848
d   1 1.0 
        2.8495040000        17.8162503928
d   1 1.0 
        1.0361830000         3.0337786695
d   1 1.0 
        0.3767940000         0.5165971977
d   1 1.0 
        0.1370160000         0.0879670103
d   1 1.0 
        0.0498240000         0.0149791654
d   1 1.0 
        0.0181180000         0.0025507214
f   4 1.0 
       35.5734580000      1886.2962682422
       11.8578190000       519.5575878865
        3.9526060000        65.2635019256
        1.3175350000         3.8546197454
f   1 1.0 
        0.4391780000         0.8952439126
f   1 1.0 
        0.1463930000         0.0755824175

  2 0
s   6 1.0 
    27032.3826310000         1.4645050749
     4052.3871392000         1.8244031008
      922.3272271000         2.8547160967
      261.2407098900         4.3654874290
       85.3546413500         5.8940772662
       31.0350352400         6.2963020147
s   1 1.0 
       12.2608607300         4.6698272139
s   1 1.0 
        4.9987076000         2.3826123703
s   1 1.0 
        1.1703108200         0.8019291632
s   1 1.0 
        0.4647474100        -0.4011648063
s   1 1.0 
        0.1850453600         0.2010799377
p   4 1.0 
       63.2749548000         3.0898340730
       14.6270493800         3.3923831935
        4.4501223500         2.9482801524
        1.5275799600         1.7113350234
p   1 1.0 
        0.5293511800         0.6436057935
p   1 1.0 
        0.1747842100         0.1610897223
d   1 1.0 
        2.3140000000        12.3767310624
d   1 1.0 
        0.6450000000         1.3234257612
f   1 1.0 
        1.4280000000        12.7097950062

  3 0
s   6 1.0 
    27032.3826310000         1.4645050749
     4052.3871392000         1.8244031008
      922.3272271000         2.8547160967
      261.2407098900         4.3654874290
       85.3546413500         5.8940772662
       31.0350352400         6.2963020147
s   1 1.0 
       12.2608607300         4.6698272139
s   1 1.0 
        4.9987076000         2.3826123703
s   1 1.0 
        1.1703108200         0.8019291632
s   1 1.0 
        0.4647474100        -0.4011648063
s   1 1.0 
        0.1850453600         0.2010799377
p   4 1.0 
       63.2749548000         3.0898340730
       14.6270493800         3.3923831935
        4.4501223500         2.9482801524
        1.5275799600         1.7113350234
p   1 1.0 
        0.5293511800         0.6436057935
p   1 1.0 
        0.1747842100         0.1610897223
d   1 1.0 
        2.3140000000        12.3767310624
d   1 1.0 
        0.6450000000         1.3234257612
f   1 1.0 
        1.4280000000        12.7097950062

  4 0
s   6 1.0 
    27032.3826310000         1.4645050749
     4052.3871392000         1.8244031008
      922.3272271000         2.8547160967
      261.2407098900         4.3654874290
       85.3546413500         5.8940772662
       31.0350352400         6.2963020147
s   1 1.0 
       12.2608607300         4.6698272139
s   1 1.0 
        4.9987076000         2.3826123703
s   1 1.0 
        1.1703108200         0.8019291632
s   1 1.0 
        0.4647474100        -0.4011648063
s   1 1.0 
        0.1850453600         0.2010799377
p   4 1.0 
       63.2749548000         3.0898340730
       14.6270493800         3.3923831935
        4.4501223500         2.9482801524
        1.5275799600         1.7113350234
p   1 1.0 
        0.5293511800         0.6436057935
p   1 1.0 
        0.1747842100         0.1610897223
d   1 1.0 
        2.3140000000        12.3767310624
d   1 1.0 
        0.6450000000         1.3234257612
f   1 1.0 
        1.4280000000        12.7097950062

  5 0
s   3 1.0 
       34.0613410000         0.2556300129
        5.1235746000         0.4613599287
        1.1646626000         0.6811215012
s   1 1.0 
        0.3272304100         0.3083545312
s   1 1.0 
        0.1030724100         0.1296483265
p   1 1.0 
        0.8000000000         1.0784563492

  6 0
s   3 1.0 
       34.0613410000         0.2556300129
        5.1235746000         0.4613599287
        1.1646626000         0.6811215012
s   1 1.0 
        0.3272304100         0.3083545312
s   1 1.0 
        0.1030724100         0.1296483265
p   1 1.0 
        0.8000000000         1.0784563492

  7 0
s   3 1.0 
       34.0613410000         0.2556300129
        5.1235746000         0.4613599287
        1.1646626000         0.6811215012
s   1 1.0 
        0.3272304100         0.3083545312
s   1 1.0 
        0.1030724100         0.1296483265
p   1 1.0 
        0.8000000000         1.0784563492

[5D]
[7F]
[9G]
[MO]
 Sym=     1a
 Ene= -2.05106394337705E+03
 Spin= Alpha
 Occup= 1.000000
  1       0.092130445644
  2       0.101539487735
  3       0.176449113347
  4       0.300456413084
  5       0.336615354989
  6       0.168809918932
  7       0.009476641037
  8       0.003324360188
  9      -0.002422297261
 10       0.001605677111
 11      -0.001085050868
 12       0.000736925330
 13      -0.000505450368
 14       0.000366614722
 15      -0.000311835581
 16       0.000290008512
 17      -0.000051001863
 18       0.000013039626
 19      -0.000000034031
 20       0.000000043433
 21      -0.000000017427
 22       0.000000018946
 23      -0.000000024359
 24       0.000000014370
 25      -0.000000012359
 26       0.000000017057
 27      -0.000000010484
 28       0.000000005884
 29      -0.000000010686
 30       0.000000009512
 31      -0.000000000605
 32       0.000000006751
 33      -0.000000011254
 34      -0.000000004417
 35      -0.000000005176
 36       0.000000016677
 37       0.000000006331
 38       0.000000011735
 39      -0.000000031608
 40       0.000000001983
 41      -0.000000040693
 42       0.000000067234
 43       0.000000009316
 44       0.000000068656
 45      -0.000000136249
 46       0.000001394820
 47      -0.000001774951
 48       0.000000996813
 49      -0.000000177596
 50       0.000000221619
 51      -0.000000125476
 52       0.000000062690
 53      -0.000000073489
 54       0.000000043082
 55      -0.000000034953
 56       0.000000045346
 57       0.000000027266
 58      -0.000000013488
 59      -0.000000019265
 60       0.000000205851
 61      -0.000000275343
 62      -0.000000164831
 63       0.000000077227
 64       0.000000110253
 65      -0.000000490441
 66       0.000000658852
 67       0.000000393571
 68      -0.000000182663
 69      -0.000000261858
 70       0.000001041643
 71      -0.000001400903
 72      -0.000000836409
 73       0.000000387201
 74       0.000000555664
 75      -0.000002219088
 76       0.000002986876
 77       0.000001782820
 78      -0.000000823720
 79      -0.000001182783
 80       0.000004415075
 81      -0.000005941152
 82      -0.000003545001
 83       0.000001638485
 84       0.000002354872
 85      -0.000021115881
 86       0.000028617506
 87       0.000017003843
 88      -0.000007698579
 89      -0.000011198898
 90       0.000000776858
 91      -0.000000844083
 92      -0.000000600191
 93       0.000000451840
 94       0.000000466565
 95      -0.000000271237
 96       0.000000322813
 97       0.000000216778
 98      -0.000000137644
 99      -0.000000154518
100      -0.000000028828
101       0.000000071450
102      -0.000000208082
103       0.000000284187
104      -0.000000289420
105      -0.000000498182
106       0.000000137146
107       0.000000195246
108      -0.000000484691
109       0.000001414951
110      -0.000001937981
111       0.000001968903
112       0.000003389741
113      -0.000000931533
114      -0.000001092804
115       0.000002725990
116      -0.000007965362
117       0.000010900074
118      -0.000011040931
119      -0.000019065248
120       0.000005219569
121       0.000000283898
122      -0.000001313189
123       0.000002498202
124      -0.000008196933
125      -0.000018994118
126      -0.000056024467
127      -0.000000319368
128       0.000000683292
129       0.000000050290
130       0.000001448393
131      -0.000003058813
132      -0.000000206534
133      -0.000014024294
134       0.000030535100
135       0.000002391240
136       0.000000198920
137      -0.000000210780
138      -0.000000135519
139       0.000000098815
140       0.000000140318
141      -0.000001842159
142       0.000000487716
143       0.000000638897
144      -0.000001700051
145      -0.000002110968
146       0.000000020697
147      -0.000000056531
148       0.000000104711
149       0.000000046419
150      -0.000000010516
151       0.000000127174
152      -0.000000033219
153       0.000000280473
154      -0.000001297334
155       0.000002468936
156      -0.000008152456
157      -0.000019124596
158      -0.000056947823
159      -0.000000299613
160      -0.000000558529
161      -0.000000377563
162       0.000001503431
163       0.000002730268
164       0.000001871935
165      -0.000013332103
166      -0.000025680976
167      -0.000017051232
168       0.000000144990
169      -0.000000210767
170      -0.000000147652
171       0.000000064669
172       0.000000042798
173      -0.000000682619
174       0.000001525213
175       0.000002120953
176      -0.000001067623
177       0.000001226948
178      -0.000000082172
179       0.000000018721
180       0.000000006787
181      -0.000000061599
182       0.000000094208
183       0.000000052830
184       0.000000023697
185       0.000000279190
186      -0.000001291304
187       0.000002457671
188      -0.000008141839
189      -0.000019241530
190      -0.000057561503
191       0.000000624876
192      -0.000000137451
193       0.000000344297
194      -0.000003243065
195       0.000000687699
196      -0.000001790923
197       0.000028874166
198      -0.000006564479
199       0.000015839756
200       0.000000131658
201      -0.000000202839
202      -0.000000099255
203       0.000000022663
204       0.000000074812
205      -0.000000787732
206       0.000002354033
207      -0.000000091792
208       0.000001467127
209      -0.000000903076
210       0.000000070101
211      -0.000000004738
212      -0.000000014404
213      -0.000000087693
214       0.000000034249
215       0.000000038713
216      -0.000000044798
217      -0.000000305336
218      -0.000006477331
219      -0.000005118161
220       0.000000528546
221      -0.000000103904
222       0.000000313027
223      -0.000000377488
224      -0.000007205844
225      -0.000004976873
226      -0.000000354318
227       0.000000779110
228       0.000000094751
229      -0.000000331846
230      -0.000006728751
231      -0.000005050527
232      -0.000000334042
233      -0.000000503522
234      -0.000000368655
 Sym=     1a
 Ene= -3.48271468396423E+02
 Spin= Alpha
 Occup= 1.000000
  1      -0.034861852080
  2      -0.042443442649
  3      -0.074644494271
  4      -0.149986742861
  5      -0.203677974113
  6      -0.073948012035
  7       0.480900492195
  8       0.593397536496
  9       0.089929307645
 10       0.004534063962
 11      -0.004021464519
 12       0.002883638567
 13      -0.002124193846
 14       0.001593650025
 15      -0.001369543800
 16       0.001280431044
 17      -0.000224690389
 18       0.000057500266
 19      -0.000000518724
 20       0.000000660433
 21      -0.000000033504
 22      -0.000000760103
 23       0.000000963509
 24      -0.000000068176
 25      -0.000000610322
 26       0.000000764336
 27      -0.000000086926
 28      -0.000000186527
 29       0.000000235799
 30      -0.000000039630
 31       0.000000047048
 32      -0.000000041602
 33      -0.000000014299
 34      -0.000000038523
 35       0.000000004946
 36       0.000000059029
 37       0.000000040817
 38       0.000000031997
 39      -0.000000128851
 40       0.000000016143
 41      -0.000000184385
 42       0.000000295290
 43       0.000000003404
 44       0.000000343993
 45      -0.000000617582
 46       0.000006167854
 47      -0.000007853336
 48       0.000004410614
 49      -0.000000789511
 50       0.000000985568
 51      -0.000000556737
 52       0.000000279093
 53      -0.000000327150
 54       0.000000191395
 55      -0.000000896777
 56       0.000001042779
 57       0.000000657773
 58      -0.000000383329
 59      -0.000000524271
 60       0.000000313553
 61      -0.000000424756
 62      -0.000000243451
 63       0.000000103511
 64       0.000000173448
 65      -0.000001814754
 66       0.000002445362
 67       0.000001451356
 68      -0.000000662998
 69      -0.000000970688
 70       0.000004316828
 71      -0.000005815507
 72      -0.000003463845
 73       0.000001593202
 74       0.000002302603
 75      -0.000009830214
 76       0.000013241229
 77       0.000007897730
 78      -0.000003639682
 79      -0.000005237627
 80       0.000019716388
 81      -0.000026555561
 82      -0.000015833415
 83       0.000007297447
 84       0.000010509948
 85      -0.000093554132
 86       0.000126794065
 87       0.000075335860
 88      -0.000034105256
 89      -0.000049615479
 90       0.000003449395
 91      -0.000003742938
 92      -0.000002664642
 93       0.000002010457
 94       0.000002072754
 95      -0.000001206532
 96       0.000001434979
 97       0.000000964166
 98      -0.000000613061
 99      -0.000000687583
100      -0.000000138115
101       0.000000338958
102      -0.000000981778
103       0.000001340868
104      -0.000001365704
105      -0.000002352413
106       0.000000647500
107       0.000000891859
108      -0.000002202056
109       0.000006426751
110      -0.000008816652
111       0.000008954195
112       0.000015406938
113      -0.000004236831
114      -0.000004848820
115       0.000012096213
116      -0.000035343549
117       0.000048365858
118      -0.000048989827
119      -0.000084596014
120       0.000023159363
121       0.000001104508
122      -0.000005460682
123       0.000010810684
124      -0.000036361240
125      -0.000084165666
126      -0.000247817834
127      -0.000001456375
128       0.000003116470
129       0.000000228978
130       0.000006368312
131      -0.000013450129
132      -0.000000907042
133      -0.000062112183
134       0.000135254777
135       0.000010598723
136       0.000000938937
137      -0.000000917344
138      -0.000000607838
139       0.000000508709
140       0.000000704605
141      -0.000008350677
142       0.000002133111
143       0.000002868412
144      -0.000007751127
145      -0.000009608956
146       0.000000101330
147      -0.000000278022
148       0.000000524443
149       0.000000209218
150      -0.000000032808
151       0.000000650975
152      -0.000000170375
153       0.000001091490
154      -0.000005395795
155       0.000010687704
156      -0.000036177493
157      -0.000084750132
158      -0.000251892160
159      -0.000001368191
160      -0.000002554005
161      -0.000001725437
162       0.000006617571
163       0.000012028688
164       0.000008244063
165      -0.000059033729
166      -0.000113745604
167      -0.000075512050
168       0.000000650596
169      -0.000000972049
170      -0.000000738752
171       0.000000332993
172       0.000000115969
173      -0.000003064767
174       0.000006894477
175       0.000009667000
176      -0.000004877330
177       0.000005653203
178      -0.000000413148
179       0.000000090401
180       0.000000049331
181      -0.000000324080
182       0.000000489394
183       0.000000297937
184       0.000000110342
185       0.000001086629
186      -0.000005371370
187       0.000010641025
188      -0.000036138847
189      -0.000085272730
190      -0.000254598016
191       0.000002860616
192      -0.000000629537
193       0.000001575747
194      -0.000014299326
195       0.000003034028
196      -0.000007895035
197       0.000127863550
198      -0.000029080136
199       0.000070140733
200       0.000000599962
201      -0.000000985430
202      -0.000000414089
203       0.000000016304
204       0.000000366734
205      -0.000003555027
206       0.000010717118
207      -0.000000475224
208       0.000006754984
209      -0.000004118043
210       0.000000364002
211      -0.000000028769
212      -0.000000059352
213      -0.000000468836
214       0.000000190635
215       0.000000229476
216      -0.000000239327
217      -0.000001439239
218      -0.000028997396
219      -0.000022660214
220       0.000002466769
221      -0.000000486347
222       0.000001456809
223      -0.000001756811
224      -0.000032243301
225      -0.000022036176
226      -0.000001633684
227       0.000003588317
228       0.000000430645
229      -0.000001555497
230      -0.000030119312
231      -0.000022361039
232      -0.000001542834
233      -0.000002340659
234      -0.000001709517
 Sym=     1a
 Ene= -3.09265566408118E+02
 Spin= Alpha
 Occup= 1.000000
  1       0.000000096089
  2       0.000000117743
  3       0.000000206270
  4       0.000000420835
  5       0.000000558873
  6       0.000000216242
  7      -0.000001493976
  8      -0.000001835519
  9       0.000000410119
 10      -0.000000158020
 11       0.000000174606
 12      -0.000000447507
 13       0.000001003522
 14      -0.000003356888
 15       0.000022856474
 16      -0.000061912686
 17       0.000008267584
 18      -0.000002186904
 19      -0.122064039581
 20       0.334493692187
 21       0.042907902948
 22      -0.163237860406
 23       0.447322775991
 24       0.057381283901
 25      -0.102740290610
 26       0.281540560256
 27       0.036115223255
 28      -0.004979120282
 29       0.013644135400
 30       0.001750196986
 31      -0.001933321653
 32       0.005298396747
 33       0.000679738956
 34       0.001332907244
 35      -0.003653512778
 36      -0.000468806782
 37      -0.000819667981
 38       0.002247878969
 39       0.000288618537
 40       0.000533970610
 41      -0.001466391133
 42      -0.000188575583
 43      -0.000364877090
 44       0.001004577191
 45       0.000129623006
 46       0.000169045747
 47      -0.000472954302
 48      -0.000063258637
 49      -0.000062608686
 50       0.000172406004
 51       0.000022396212
 52       0.000015621659
 53      -0.000042744278
 54      -0.000005503588
 55      -0.000000095298
 56       0.000000107148
 57       0.000000058501
 58      -0.000000029911
 59      -0.000000084117
 60      -0.000001164968
 61      -0.000001753667
 62      -0.000000809490
 63      -0.000001854489
 64      -0.000002811940
 65       0.000003471930
 66       0.000005396973
 67       0.000002439758
 68       0.000005605607
 69       0.000008481858
 70      -0.000008223576
 71      -0.000012712272
 72      -0.000005783139
 73      -0.000013237723
 74      -0.000020056564
 75       0.000018058820
 76       0.000027923024
 77       0.000012711853
 78       0.000029077338
 79       0.000044045301
 80      -0.000032882856
 81      -0.000051038691
 82      -0.000023179723
 83      -0.000053072457
 84      -0.000080270403
 85       0.000014126709
 86       0.000004747830
 87       0.000000508170
 88       0.000014999291
 89       0.000023390775
 90       0.000002062752
 91       0.000004934718
 92       0.000002382017
 93       0.000004068734
 94       0.000006183125
 95      -0.000003067437
 96      -0.000005400390
 97      -0.000002456603
 98      -0.000005239130
 99      -0.000007887081
100       0.000001268125
101      -0.000001939365
102       0.000003120715
103       0.000004120143
104      -0.000002823730
105       0.000001928575
106      -0.000000713156
107      -0.000008822487
108       0.000013495009
109      -0.000021825765
110      -0.000028853958
111       0.000019662059
112      -0.000013437163
113       0.000004919815
114       0.000005767959
115      -0.000007150275
116       0.000013598106
117       0.000013335188
118      -0.000006477942
119       0.000011546354
120      -0.000005643935
121      -0.000001257060
122       0.000006567719
123      -0.000014043450
124       0.000050562706
125       0.000056016761
126       0.000140493979
127       0.000006919442
128      -0.000014364584
129      -0.000000846924
130      -0.000048634060
131       0.000103147470
132       0.000007059041
133      -0.000041581633
134       0.000096171556
135       0.000010111067
136      -0.000002025657
137      -0.000000319427
138       0.000000016261
139      -0.000002100984
140      -0.000003040154
141       0.000017851988
142       0.000001830202
143      -0.000001627299
144       0.000018900714
145       0.000025314655
146      -0.000000937912
147       0.000002785742
148      -0.000005698327
149      -0.000000947696
150      -0.000000756194
151      -0.000007970013
152       0.000001750582
153       0.000000587954
154      -0.000003128372
155       0.000006917610
156      -0.000026559727
157      -0.000024139392
158      -0.000065935486
159      -0.000004793107
160      -0.000006662655
161      -0.000005258848
162       0.000032769637
163       0.000054827506
164       0.000039121746
165       0.000027939612
166       0.000071554093
167       0.000041690236
168      -0.000000474369
169      -0.000001611844
170      -0.000000962585
171      -0.000001037584
172      -0.000001883041
173       0.000000809901
174       0.000011598418
175       0.000011956085
176       0.000000805894
177       0.000014280619
178      -0.000002651278
179       0.000001147108
180       0.000001391605
181      -0.000000958299
182       0.000005087690
183       0.000002848330
184      -0.000001738395
185       0.000000321061
186      -0.000001731186
187       0.000003919831
188      -0.000015672543
189      -0.000011959113
190      -0.000035088325
191       0.000005379900
192       0.000000135149
193       0.000003413270
194      -0.000042818835
195       0.000005553235
196      -0.000024901781
197      -0.000054868533
198       0.000020420655
199      -0.000027545953
200      -0.000000628900
201      -0.000001400158
202      -0.000000730200
203      -0.000001177443
204      -0.000001817084
205       0.000001607441
206       0.000011729301
207       0.000002471609
208       0.000009827577
209       0.000006456491
210       0.000001717347
211      -0.000001353669
212       0.000000092505
213      -0.000003769102
214      -0.000000445470
215       0.000002568216
216       0.000000786044
217      -0.000003145088
218       0.000064705376
219       0.000023950106
220      -0.000015294531
221      -0.000002042677
222      -0.000010372614
223       0.000009086387
224      -0.000131632231
225      -0.000051518781
226      -0.000016064842
227       0.000032704740
228       0.000001944153
229      -0.000005060363
230       0.000093703775
231       0.000034984089
232       0.000014569188
233       0.000016400515
234       0.000014567759
 Sym=     1a
 Ene= -3.09265481030682E+02
 Spin= Alpha
 Occup= 1.000000
  1       0.000000038114
  2       0.000000046919
  3       0.000000081471
  4       0.000000169262
  5       0.000000217992
  6       0.000000095778
  7      -0.000000648613
  8      -0.000000693923
  9       0.000000212379
 10      -0.000000019340
 11      -0.000000054798
 12      -0.000000026761
 13       0.000000251512
 14      -0.000001681927
 15       0.000014496537
 16      -0.000040364977
 17       0.000005563321
 18      -0.000001534775
 19      -0.286448712208
 20      -0.078757234035
 21      -0.200925726613
 22      -0.383071843360
 23      -0.105323116061
 24      -0.268700722136
 25      -0.241101289907
 26      -0.066289245996
 27      -0.169117378953
 28      -0.011684876334
 29      -0.003212617102
 30      -0.008196029339
 31      -0.004536051490
 32      -0.001247309032
 33      -0.003182123792
 34       0.003126251601
 35       0.000859829451
 36       0.002193555917
 37      -0.001920448704
 38      -0.000528538386
 39      -0.001348361497
 40       0.001247930410
 41       0.000344021831
 42       0.000877766837
 43      -0.000849677484
 44      -0.000234656120
 45      -0.000599377759
 46       0.000388755362
 47       0.000103817131
 48       0.000272026459
 49      -0.000146373861
 50      -0.000039537867
 51      -0.000102179704
 52       0.000037204437
 53       0.000009936607
 54       0.000025767437
 55      -0.000000044381
 56       0.000000221876
 57      -0.000000330660
 58       0.000000464333
 59      -0.000000320584
 60       0.000000034468
 61      -0.000001179137
 62       0.000002208015
 63      -0.000002915359
 64       0.000001942590
 65      -0.000000098352
 66       0.000003690050
 67      -0.000006739618
 68       0.000008933331
 69      -0.000005967983
 70       0.000000241951
 71      -0.000008614622
 72       0.000015813559
 73      -0.000020936155
 74       0.000013996192
 75      -0.000000534400
 76       0.000018950071
 77      -0.000034779779
 78       0.000046056586
 79      -0.000030773726
 80       0.000001000632
 81      -0.000034792637
 82       0.000063778559
 83      -0.000084470638
 84       0.000056453991
 85       0.000004353548
 86       0.000001909672
 87      -0.000014711811
 88       0.000017384233
 89      -0.000007715791
 90      -0.000000483024
 91       0.000003768503
 92      -0.000005711952
 93       0.000007806307
 94      -0.000005560038
 95       0.000000258696
 96      -0.000003664591
 97       0.000006310933
 98      -0.000008399966
 99       0.000005809325
100      -0.000005346151
101       0.000000650762
102       0.000001193483
103       0.000002040600
104       0.000001636695
105       0.000000592343
106       0.000002239149
107       0.000037109575
108      -0.000004502392
109      -0.000008194061
110      -0.000014296962
111      -0.000011232533
112      -0.000004024544
113      -0.000015556582
114      -0.000017921161
115       0.000001206833
116       0.000005174963
117       0.000004536932
118       0.000006299486
119       0.000005663631
120       0.000007989154
121      -0.000000206156
122       0.000001059228
123      -0.000002197287
124       0.000007671906
125       0.000011349498
126       0.000023403949
127      -0.000000226731
128      -0.000002049953
129      -0.000000851915
130      -0.000002449000
131       0.000011443022
132       0.000002553363
133      -0.000009802488
134      -0.000001170329
135      -0.000006208927
136      -0.000000147971
137      -0.000000579666
138       0.000001596660
139      -0.000002107176
140       0.000001172092
141       0.000001818697
142       0.000002681003
143      -0.000007306980
144       0.000010651523
145      -0.000003606324
146      -0.000001338861
147      -0.000000626338
148      -0.000000577893
149      -0.000001435303
150      -0.000001292579
151       0.000000113531
152       0.000003134271
153      -0.000000898255
154       0.000004721455
155      -0.000010218020
156       0.000037940137
157       0.000039473784
158       0.000097610674
159       0.000004449530
160       0.000009981512
161       0.000006226283
162      -0.000035927885
163      -0.000071409933
164      -0.000046872262
165      -0.000043375619
166      -0.000069746840
167      -0.000050296670
168      -0.000000592349
169       0.000000126805
170       0.000002201427
171      -0.000002347323
172       0.000001117651
173       0.000004349618
174      -0.000005842479
175      -0.000019717858
176       0.000015855026
177      -0.000012539431
178       0.000003721502
179      -0.000000237383
180      -0.000000703434
181       0.000004283210
182      -0.000004051857
183      -0.000004039761
184      -0.000001902203
185       0.000000897672
186      -0.000004765592
187       0.000010505859
188      -0.000040435088
189      -0.000037674951
190      -0.000095727535