[Molden Format]
[Title]
 Molden file created by orca_2mkl for BaseName=/home/nikolayandreadi_2125/_scratch/F1_cc/Pm_F1_cc

[Atoms] AU
Pm   1  61          0.0565897388        -0.6641310217        -1.5500270744 
F    2   9         -1.5188730493         2.8194600535        -0.5523026983 
[GTO]
  1 0
s   6 1.0 
  1028523.6509460000      1938.6121026123
   457121.6226430000      -507.6849850967
   203165.1656190000      1141.5619094338
    90295.6291640000       276.3700689820
    40131.3907400000       711.5996470204
    17836.1736620000       554.3401448036
s   1 1.0 
     7927.1882940000       598.7554407759
s   1 1.0 
     3523.1947970000       325.9211801138
s   1 1.0 
     1565.8643540000       177.4090194577
s   1 1.0 
      695.9397130000        96.5692385535
s   1 1.0 
      309.3065390000        52.5656353870
s   1 1.0 
      137.4695730000        28.6131077292
s   1 1.0 
       61.0975880000        15.5750030871
s   1 1.0 
       27.1544840000         8.4779579498
s   1 1.0 
       12.0686590000         4.6148156268
s   1 1.0 
        5.3638490000         2.5119876491
s   1 1.0 
        2.3839330000         1.3673529323
s   1 1.0 
        1.0595260000         0.7442927799
s   1 1.0 
        0.4709000000         0.4051413865
s   1 1.0 
        0.2092890000         0.2205311257
s   1 1.0 
        0.0930170000         0.1200416175
s   1 1.0 
        0.0413410000         0.0653425119
s   1 1.0 
        0.0183740000         0.0355682810
p   5 1.0 
    13902.5411060000      2568.5145477876
     5561.0164430000      1081.0356736804
     2224.4065770000      1714.7353229019
      889.7626310000      1715.9795287132
      355.9050520000      1644.2651453214
p   1 1.0 
      142.3620210000       700.9431061620
p   1 1.0 
       56.9448080000       222.9758119869
p   1 1.0 
       22.7779230000        70.9304538200
p   1 1.0 
        9.1111690000        22.5635648614
p   1 1.0 
        3.6444680000         7.1776580531
p   1 1.0 
        1.4577870000         2.2832721487
p   1 1.0 
        0.5831150000         0.7263281137
p   1 1.0 
        0.2332460000         0.2310509953
p   1 1.0 
        0.0932980000         0.0734988435
p   1 1.0 
        0.0373190000         0.0233804349
p   1 1.0 
        0.0149280000         0.0074377593
d   4 1.0 
      961.1107520000      3886.1580211301
      349.4948190000      3760.9041730743
      127.0890250000      3496.7670385456
       46.2141910000      1860.8963173302
d   1 1.0 
       16.8051600000       397.6442657049
d   1 1.0 
        6.1109670000        67.7115064157
d   1 1.0 
        2.2221700000        11.5300269891
d   1 1.0 
        0.8080620000         1.9633525042
d   1 1.0 
        0.2938410000         0.3343233977
d   1 1.0 
        0.1068510000         0.0569288771
d   1 1.0 
        0.0388550000         0.0096939814
d   1 1.0 
        0.0141290000         0.0016506883
f   4 1.0 
       25.1300980000       848.4519484560
        8.3766990000       228.5051917205
        2.7922330000        29.8202676408
        0.9307440000         1.8405872106
f   1 1.0 
        0.3102480000         0.4095861926
f   1 1.0 
        0.1034160000         0.0345798006

  2 0
s   6 1.0 
    35479.1004410000         1.9229128581
     5318.4728983000         2.2734773358
     1210.4810975000         3.4747482552
      342.8551814000         5.2879612972
      112.0194318100         7.1666332516
       40.7147402500         7.7556346254
s   1 1.0 
       16.0396781100         5.7122450312
s   1 1.0 
        6.5038186700         2.9025947842
s   1 1.0 
        1.5440477500         0.9872011154
s   1 1.0 
        0.6122345300        -0.4932856223
s   1 1.0 
        0.2402798000         0.2445952611
p   4 1.0 
       80.2339004800         4.2755032106
       18.5940107400         4.7314752302
        5.6867902700         4.0864798013
        1.9511006300         2.2989954518
p   1 1.0 
        0.6697021100         0.8635593126
p   1 1.0 
        0.2165130000         0.2105208234
d   1 1.0 
        3.1070000000        20.7284714039
d   1 1.0 
        0.8550000000         2.1672588463
f   1 1.0 
        1.9170000000        24.6547062912

[5D]
[7F]
[9G]
[MO]
 Sym=     1a
 Ene= -1.66689826946566E+03
 Spin= Alpha
 Occup= 1.000000
  1      -0.082189576209
  2      -0.094579798613
  3      -0.171613943822
  4      -0.299213859150
  5      -0.344997803059
  6      -0.175738926446
  7      -0.010844381111
  8      -0.003147744748
  9       0.002288440015
 10      -0.001504781531
 11       0.001012982620
 12      -0.000676803987
 13       0.000443004762
 14      -0.000286399389
 15       0.000179204925
 16      -0.000101802883
 17       0.000045092047
 18      -0.000012238683
 19      -0.000000046673
 20       0.000000104820
 21       0.000000030369
 22       0.000000180084
 23      -0.000000397266
 24      -0.000000114366
 25      -0.000000125125
 26       0.000000276370
 27       0.000000079446
 28       0.000000159243
 29      -0.000000351957
 30      -0.000000101006
 31      -0.000000236328
 32       0.000000522556
 33       0.000000149808
 34       0.000000382693
 35      -0.000000846130
 36      -0.000000242399
 37      -0.000000678318
 38       0.000001499811
 39       0.000000429604
 40       0.000001161806
 41      -0.000002568901
 42      -0.000000735783
 43      -0.000001510700
 44       0.000003340382
 45       0.000000956719
 46       0.000001540601
 47      -0.000003406499
 48      -0.000000975654
 49      -0.000000219649
 50       0.000000485675
 51       0.000000139104
 52       0.000000043043
 53      -0.000000095174
 54      -0.000000027260
 55       0.000000005842
 56       0.000000003289
 57      -0.000000005573
 58       0.000000008462
 59       0.000000009044
 60      -0.000000064679
 61       0.000000002703
 62       0.000000068692
 63      -0.000000064315
 64      -0.000000084486
 65       0.000000144390
 66       0.000000043135
 67      -0.000000141736
 68       0.000000177534
 69       0.000000209428
 70      -0.000000288079
 71      -0.000000108541
 72       0.000000278186
 73      -0.000000370422
 74      -0.000000427177
 75       0.000000567990
 76       0.000000241920
 77      -0.000000542277
 78       0.000000750000
 79       0.000000853956
 80      -0.000000871234
 81      -0.000000373823
 82       0.000000831190
 83      -0.000001152356
 84      -0.000001311026
 85       0.000000982789
 86       0.000000422424
 87      -0.000000937446
 88       0.000001300418
 89       0.000001479204
 90      -0.000000072823
 91      -0.000000030817
 92       0.000000069570
 93      -0.000000096018
 94      -0.000000109403
 95       0.000000010554
 96       0.000000004352
 97      -0.000000010108
 98       0.000000013835
 99       0.000000015807
100       0.000000063955
101      -0.000000031231
102       0.000000069561
103       0.000000056809
104       0.000000065358
105       0.000000129665
106      -0.000000039780
107      -0.000000369407
108       0.000000181328
109      -0.000000401413
110      -0.000000329641
111      -0.000000375524
112      -0.000000747662
113       0.000000228663
114       0.000000470157
115      -0.000000230960
116       0.000000510824
117       0.000000419823
118       0.000000477570
119       0.000000951338
120      -0.000000290808
121      -0.000000090139
122       0.000000419651
123      -0.000000804524
124       0.000002397598
125       0.000004220711
126       0.000004942141
127       0.000000218487
128      -0.000000483111
129      -0.000000138366
130      -0.000001038393
131       0.000002296046
132       0.000000657603
133       0.000000392953
134      -0.000000868871
135      -0.000000248850
136      -0.000000092377
137      -0.000000039849
138       0.000000088083
139      -0.000000122335
140      -0.000000139097
141       0.000000567542
142       0.000000244786
143      -0.000000541170
144       0.000000751564
145       0.000000854565
146       0.000000007869
147      -0.000000003869
148       0.000000008548
149       0.000000007032
150       0.000000007986
151       0.000000015918
152      -0.000000004862
 Sym=     1a
 Ene= -2.75705773096216E+02
 Spin= Alpha
 Occup= 1.000000
  1       0.030283210822
  2       0.038285879794
  3       0.070591676636
  4       0.145188778089
  5       0.206549854669
  6       0.093564683405
  7      -0.455759046715
  8      -0.612524785741
  9      -0.107020954040
 10      -0.003760910656
 11       0.003216208278
 12      -0.002284928928
 13       0.001652963096
 14      -0.001115130217
 15       0.000703963617
 16      -0.000402699008
 17       0.000178950974
 18      -0.000048649813
 19       0.000008379305
 20      -0.000018319645
 21      -0.000005248452
 22       0.000011781341
 23      -0.000025770615
 24      -0.000007384598
 25       0.000008861766
 26      -0.000019369234
 27      -0.000005543628
 28       0.000000372266
 29      -0.000000756278
 30      -0.000000207304
 31      -0.000000248676
 32       0.000000544436
 33       0.000000153556
 34       0.000001240393
 35      -0.000002737839
 36      -0.000000783158
 37      -0.000002485288
 38       0.000005494545
 39       0.000001573096
 40       0.000004497789
 41      -0.000009944404
 42      -0.000002847543
 43      -0.000006069391
 44       0.000013419565
 45       0.000003843338
 46       0.000006051185
 47      -0.000013379766
 48      -0.000003831888
 49      -0.000000846824
 50       0.000001872331
 51       0.000000536201
 52       0.000000164599
 53      -0.000000363916
 54      -0.000000104212
 55      -0.000001773184
 56       0.000001790013
 57       0.000002182285
 58      -0.000000467861
 59      -0.000001624574
 60       0.000000895300
 61      -0.000002019974
 62      -0.000001379878
 63      -0.000000518554
 64       0.000000342055
 65      -0.000000339837
 66       0.000001280559
 67       0.000000627847
 68       0.000000568736
 69       0.000000083076
 70      -0.000000586420
 71      -0.000001236461
 72       0.000000345740
 73      -0.000001474761
 74      -0.000001293833
 75       0.000002096156
 76       0.000001257877
 77      -0.000001922846
 78       0.000003027855
 79       0.000003303790
 80      -0.000003452950
 81      -0.000001662412
 82       0.000003255035
 83      -0.000004695546
 84      -0.000005271513
 85       0.000003825599
 86       0.000001756875
 87      -0.000003624808
 88       0.000005142012
 89       0.000005804940
 90      -0.000000257276
 91      -0.000000158027
 92       0.000000235199
 93      -0.000000374196
 94      -0.000000407020
 95       0.000000032100
 96       0.000000029908
 97      -0.000000027154
 98       0.000000053943
 99       0.000000055035
100       0.000000304909
101      -0.000000142340
102       0.000000337881
103       0.000000260311
104       0.000000329989
105       0.000000632711
106      -0.000000197765
107      -0.000001555126
108       0.000000765631
109      -0.000001690125
110      -0.000001391034
111      -0.000001577549
112      -0.000003146289
113       0.000000959694
114       0.000001885806
115      -0.000000926794
116       0.000002049212
117       0.000001684426
118       0.000001915278
119       0.000003816026
120      -0.000001165881
121      -0.000000297780
122       0.000001517613
123      -0.000003091901
124       0.000009482349
125       0.000016488380
126       0.000019248041
127       0.000000904256
128      -0.000001999515
129      -0.000000572698
130      -0.000004128495
131       0.000009129080
132       0.000002614693
133       0.000001484568
134      -0.000003282963
135      -0.000000940327
136      -0.000000401544
137      -0.000000172767
138       0.000000383024
139      -0.000000531476
140      -0.000000604428
141       0.000002333399
142       0.000001005068
143      -0.000002225402
144       0.000003089141
145       0.000003512862
146       0.000000004011
147      -0.000000002081
148       0.000000004349
149       0.000000003705
150       0.000000003902
151       0.000000008041
152      -0.000000002343
 Sym=     1a
 Ene= -2.46496680249575E+02
 Spin= Alpha
 Occup= 1.000000
  1      -0.000000001436
  2      -0.000000001852
  3      -0.000000003224
  4      -0.000000007272
  5      -0.000000008687
  6      -0.000000007344
  7       0.000000023818
  8       0.000000028911
  9       0.000000016240
 10      -0.000000029106
 11       0.000000049517
 12      -0.000000082683
 13       0.000000133994
 14      -0.000000183488
 15       0.000000116639
 16       0.000000066510
 17      -0.000000053098
 18       0.000000011774
 19       0.154548916966
 20       0.149724679411
 21      -0.276989408914
 22       0.211257970436
 23       0.204663554237
 24      -0.378625875808
 25       0.135523217541
 26       0.131292867069
 27      -0.242890709732
 28       0.007591825136
 29       0.007354842925
 30      -0.013606412291
 31       0.002404500991
 32       0.002329460705
 33      -0.004309454081
 34      -0.001656254749
 35      -0.001604593845
 36       0.002968426170
 37       0.000983474987
 38       0.000952851181
 39      -0.001762655245
 40      -0.000587880074
 41      -0.000569665349
 42       0.001053673918
 43       0.000341803450
 44       0.000331298861
 45      -0.000612654815
 46      -0.000188886319
 47      -0.000182966022
 48       0.000338521624
 49       0.000090278190
 50       0.000087421316
 51      -0.000161786339
 52      -0.000028704624
 53      -0.000027797826
 54       0.000051441749
 55      -0.000002320622
 56       0.000002888137
 57      -0.000003954263
 58      -0.000003723191
 59       0.000001454876
 60       0.000000579108
 61      -0.000000727653
 62       0.000000995627
 63       0.000000935764
 64      -0.000000366226
 65       0.000000122653
 66      -0.000000140714
 67       0.000000200688
 68       0.000000193351
 69      -0.000000072333
 70      -0.000000312247
 71       0.000000363028
 72      -0.000000502975
 73      -0.000000490224
 74       0.000000178134
 75       0.000000740359
 76      -0.000000876242
 77       0.000001204244
 78       0.000001174207
 79      -0.000000423798
 80      -0.000001118134
 81       0.000001318500
 82      -0.000001809282
 83      -0.000001773307
 84       0.000000631790
 85       0.000001177115
 86      -0.000001457542
 87       0.000002015230
 88       0.000001878539
 89      -0.000000753808
 90       0.000000392304
 91      -0.000000468179
 92       0.000000643033
 93       0.000000623443
 94      -0.000000227983
 95      -0.000000141802
 96       0.000000170170
 97      -0.000000233938
 98      -0.000000225500
 99       0.000000083622
100      -0.000000178376
101      -0.000000302279
102       0.000000103542
103      -0.000000090861
104      -0.000000092319
105      -0.000000027168
106      -0.000000288002
107       0.000000888757
108       0.000000619484
109      -0.000001215443
110       0.000000441913
111       0.000001203534
112      -0.000000056339
113       0.000001516535
114      -0.000001349138
115      -0.000000572334
116       0.000002066030
117      -0.000000677697
118      -0.000002108790
119       0.000000107216
120      -0.000002282412
121      -0.000000001240
122       0.000000006577
123      -0.000000013617
124       0.000000041281
125       0.000000037911
126      -0.000000047799
127       0.000001103476
128       0.000001045332
129      -0.000001969073
130      -0.000003080780
131      -0.000002889727
132       0.000005486971
133       0.000004143144
134       0.000004093128
135      -0.000007454445
136       0.000001137036
137      -0.000001410298
138       0.000001949716
139       0.000001815202
140      -0.000000730379
141      -0.000003469411
142       0.000004316188
143      -0.000005969796
144      -0.000005540877
145       0.000002245163
146      -0.000001040517
147      -0.000000390392
148       0.000001615774
149      -0.000000524532
150      -0.000001662185
151       0.000000080320
152      -0.000001751752
 Sym=     1a
 Ene= -2.46495978712480E+02
 Spin= Alpha
 Occup= 1.000000
  1       0.000000196912
  2       0.000000246144
  3       0.000000469982
  4       0.000000912572
  5       0.000001430841
  6       0.000000402688
  7      -0.000002615275
  8      -0.000004417040
  9       0.000000137549
 10      -0.000002504946
 11       0.000004540825
 12      -0.000007205692
 13       0.000011611264
 14      -0.000015990119
 15       0.000010173898
 16       0.000005740349
 17      -0.000004601318
 18       0.000001021673
 19       0.265100650170
 20       0.104612187903
 21       0.204462852613
 22       0.362369938938
 23       0.142995871104
 24       0.279483219224
 25       0.232464800171
 26       0.091733676443
 27       0.179291976584
 28       0.013027783117
 29       0.005139995375
 30       0.010047372658
 31       0.004120352157
 32       0.001627505548
 33       0.003178721628
 34      -0.002839164876
 35      -0.001123244824
 36      -0.002191296507
 37       0.001685491465
 38       0.000670455434
 39       0.001302838327
 40      -0.001004584145
 41      -0.000406128975
 42      -0.000780032602
 43       0.000581447175
 44       0.000241231061
 45       0.000454801541
 46      -0.000324703142
 47      -0.000126444734
 48      -0.000249522660
 49       0.000155842939
 50       0.000058747772
 51       0.000118713920
 52      -0.000049514029
 53      -0.000018774845
 54      -0.000037776596
 55       0.000001159552
 56      -0.000000288668
 57       0.000003704672
 58      -0.000003582574
 59       0.000003324165
 60      -0.000000398335
 61      -0.000000004282
 62      -0.000000940889
 63       0.000000831823
 64      -0.000001057339
 65       0.000000297338
 66       0.000000136847
 67      -0.000000342551
 68       0.000000455604
 69       0.000000426361
 70      -0.000000641682
 71      -0.000000385490
 72       0.000001207519
 73      -0.000001492738
 74      -0.000000772178
 75       0.000001358313
 76       0.000000848979
 77      -0.000002916527
 78       0.000003518802
 79       0.000001503522
 80      -0.000002384014
 81      -0.000001421545
 82       0.000004702518
 83      -0.000005733528
 84      -0.000002778384
 85      -0.000001102296
 86      -0.000000052682
 87      -0.000001567555
 88       0.000001316659
 89      -0.000002534477
 90       0.000000572144
 91       0.000000384857
 92      -0.000001405697
 93       0.000001668902
 94       0.000000573953
 95      -0.000000157136
 96      -0.000000117973
 97       0.000000462452
 98      -0.000000539287
 99      -0.000000132096
100       0.000000573135
101       0.000000039885
102       0.000000031609
103       0.000000503177
104       0.000000233118
105       0.000000322319
106      -0.000000675877
107      -0.000002603570
108       0.000000079212
109      -0.000000951976
110      -0.000002779830
111      -0.000001769719
112      -0.000002493274
113       0.000003043014
114       0.000001591189
115       0.000000849236
116      -0.000000530016
117       0.000002443682
118       0.000000808029
119      -0.000000229534
120      -0.000003129777
121      -0.000000108752
122       0.000000575972
123      -0.000001192400
124       0.000003609981
125       0.000003339464
126      -0.000004087029
127       0.000002537423
128      -0.000000691627
129       0.000001044516
130      -0.000007853449
131       0.000003670029
132      -0.000002408455
133       0.000005000987
134       0.000007593842
135       0.000006886586
136      -0.000001181172
137      -0.000000096168
138      -0.000001437395
139       0.000001153368
140      -0.000002635113
141       0.000004281633
142       0.000000582859
143       0.000003758130
144      -0.000002641281
145       0.000009066836
146       0.000000694919
147       0.000000892967
148      -0.000000912178
149       0.000001453185
150       0.000000149418
151      -0.000001157615
152      -0.000002082415
 Sym=     1a
 Ene= -2.46495902115601E+02
 Spin= Alpha
 Occup= 1.000000
  1      -0.000001869368
  2      -0.000002338038
  3      -0.000004457679
  4      -0.000008677819
  5      -0.000013551943
  6      -0.000003911926
  7       0.000025038374
  8       0.000041952229
  9      -0.000001441856
 10       0.000022904205
 11      -0.000041474641
 12       0.000065857040
 13      -0.000106115197
 14       0.000146117862
 15      -0.000092978377
 16      -0.000052433814
 17       0.000042041351
 18      -0.000009335030
 19       0.169891999628
 20      -0.299443267994
 21      -0.067069067593
 22       0.232227686201
 23      -0.409312989658
 24      -0.091677580149
 25       0.148976985834
 26      -0.262579530638
 27      -0.058812367465
 28       0.008345258670
 29      -0.014707473894
 30      -0.003293709610
 31       0.002646493473
 32      -0.004667029040
 33      -0.001046075832
 34      -0.001830298374
 35       0.003230512625
 36       0.000724959108
 37       0.001100203042
 38      -0.001947562069
 39      -0.000438797318
 40      -0.000680231425
 41       0.001214211957
 42       0.000276657026
 43       0.000416852173
 44      -0.000753260608
 45      -0.000174419298
 46      -0.000201764081
 47       0.000352967123
 48       0.000078241151
 49       0.000089556365
 50      -0.000153522297
 51      -0.000033054945
 52      -0.000028864988
 53       0.000049674220
 54       0.000010756215
 55       0.000003498645
 56       0.000001326423
 57      -0.000002826196
 58       0.000003966229
 59       0.000005423221
 60      -0.000000107832
 61       0.000000189031
 62       0.000000024093
 63       0.000000146125
 64      -0.000000116649
 65      -0.000002889392
 66      -0.000001252943
 67       0.000002749977
 68      -0.000003828829
 69      -0.000004354947
 70       0.000007625940
 71       0.000003336879
 72      -0.000007190280
 73       0.000010066097
 74       0.000011530984
 75      -0.000017128468
 76      -0.000007370124
 77       0.000016154963
 78      -0.000022501159
 79      -0.000025855874
 80       0.000028851080
 81       0.000012412837
 82      -0.000027245436
 83       0.000037930114
 84       0.000043537956
 85       0.000002453046
 86       0.000001097777
 87      -0.000002622883
 88       0.000003550037
 89       0.000003592934
 90      -0.000007727375
 91      -0.000003315722
 92       0.000007276180
 93      -0.000010131033
 94      -0.000011666668
 95       0.000002344322
 96       0.000001004958
 97      -0.000002201885
 98       0.000003067472
 99       0.000003541330
100      -0.000002437727
101       0.000001306881
102      -0.000002697981
103      -0.000002288128
104      -0.000002384726
105      -0.000004950711
106       0.000001384537
107       0.000015522976
108      -0.000007851810
109       0.000017035184
110       0.000013952865
111       0.000015679489
112       0.000031596394
113      -0.000009323545
114      -0.000005210672
115       0.000002758732
116      -0.000005897222
117      -0.000004572751
118      -0.000005340736
119      -0.000010892103
120       0.000002957257
121       0.000000993919
122      -0.000005263954
123       0.000010897563
124      -0.000032991753
125      -0.000030526750
126       0.000037324345
127      -0.000004726973
128       0.000010995007
129       0.000003282221
130       0.000020369417
131      -0.000046551532
132      -0.000013703420
133       0.000024293143
134      -0.000051657225
135      -0.000014290072
136       0.000003338779
137       0.000001480862
138      -0.000003460869
139       0.000004717774
140       0.000004929609
141      -0.000016325627
142      -0.000007167028
143       0.000016414728
144      -0.000022526163
145      -0.000024283600
146       0.000000435124
147      -0.000000080939
148       0.000000293303
149       0.000000481893
150       0.000000378035
151       0.000000601149
152      -0.000000451598
 Sym=     1a
 Ene= -6.22916922108375E+01
 Spin= Alpha
 Occup= 1.000000
  1       0.013997208620
  2       0.017909458577
  3       0.033362321421
  4       0.069670448825
  5       0.104895473684
  6       0.044769109357
  7      -0.337762332622
  8      -0.695374124322
  9       0.352154930399
 10       0.940129977161
 11       0.074189087360
 12       0.030606379021
 13      -0.020691364417
 14       0.014026783348
 15      -0.009070356081
 16       0.005214030499
 17      -0.002327421367
 18       0.000634221448
 19       0.000025735463
 20      -0.000055716858
 21      -0.000015870607
 22       0.000040402545
 23      -0.000087530343
 24      -0.000024942503
 25       0.000004847047
 26      -0.000010376369
 27      -0.000002931164
 28      -0.000104233810
 29       0.000225830826
 30       0.000064348576
 31      -0.000049061307
 32       0.000105556696
 33       0.000029980595
 34      -0.000014074992
 35       0.000031710553
 36       0.000009152805
 37       0.000029669416
 38      -0.000065856883
 39      -0.000018887544
 40      -0.000058126803
 41       0.000128672358
 42       0.000036870937
 43       0.000077241482
 44      -0.000170884360
 45      -0.000048949307
 46      -0.000077512100
 47       0.000171438338
 48       0.000049106374
 49       0.000010724604
 50      -0.000023735089
 51      -0.000006800107
 52      -0.000002070021
 53       0.000004583852
 54       0.000001313567
 55      -0.000020944777
 56       0.000055247097
 57       0.000034414758
 58       0.000017374986
 59      -0.000004504897
 60       0.000002431418
 61       0.000032332889
 62       0.000005619217
 63       0.000024204254
 64       0.000017131938
 65      -0.000003706637
 66       0.000000940001
 67       0.000004048267
 68      -0.000003078180
 69      -0.000004518516
 70       0.000015810435
 71       0.000000834861
 72      -0.000016429234
 73       0.000016749284
 74       0.000021284678
 75      -0.000028364856
 76      -0.000011890094
 77       0.000027126470
 78      -0.000037324828
 79      -0.000042562889
 80       0.000044999304
 81       0.000019896565
 82      -0.000042813203
 83       0.000059949354
 84       0.000067955860
 85      -0.000050001431
 86      -0.000021265723
 87       0.000047745743
 88      -0.000066003959
 89      -0.000075161898
 90       0.000003567042
 91       0.000001472161
 92      -0.000003416912
 93       0.000004677377
 94       0.000005343117
 95      -0.000000504299
 96      -0.000000194405
 97       0.000000486288
 98      -0.000000651693
 99      -0.000000749629
100      -0.000005875517
101       0.000003137146
102      -0.000006407702
103      -0.000005743029
104      -0.000005566066
105      -0.000011691687
106       0.000003435985
107       0.000019936784
108      -0.000009809213
109       0.000021691144
110       0.000017860281
111       0.000020254498
112       0.000040359920
113      -0.000012348639
114      -0.000024459479
115       0.000012024242
116      -0.000026584755
117      -0.000021867608
118      -0.000024839116
119      -0.000049494611
120       0.000015131469
121       0.000002240056
122      -0.000015340035
123       0.000034775172
124      -0.000117367612
125      -0.000207395601
126      -0.000243461547
127      -0.000011433942
128       0.000025276275
129       0.000007239399
130       0.000053567735
131      -0.000118434059
132      -0.000033920712
133      -0.000018280571
134       0.000040412411
135       0.000011574183
136       0.000005411754
137       0.000002338684
138      -0.000005159028
139       0.000007167347
140       0.000008152036
141      -0.000031018965
142      -0.000013401479
143       0.000029572288
144      -0.000041086875
145      -0.000046719434
146       0.000000441261
147      -0.000000214810
148       0.000000480172
149       0.000000390381
150       0.000000452858
151       0.000000896014
152      -0.000000274471
 Sym=     1a
 Ene= -5.28586257668505E+01
 Spin= Alpha
 Occup= 1.000000
  1      -0.000000055340
  2      -0.000000071859
  3      -0.000000128111
  4      -0.000000287457
  5      -0.000000386046
  6      -0.000000247975
  7       0.000001533235
  8       0.000002139476
  9       0.000000259773
 10      -0.000007003819
 11       0.000004826710
 12      -0.000008416957
 13       0.000014454932
 14      -0.000020138080
 15       0.000012653168
 16       0.000008074160
 17      -0.000006233355
 18       0.000001385337
 19      -0.146352698674
 20      -0.040353708986
 21      -0.103743760659
 22      -0.227268130811
 23      -0.062664491793
 24      -0.161101591274
 25      -0.014186424667
 26      -0.003911477355
 27      -0.010056162191
 28       0.559500341219
 29       0.154270376578
 30       0.396608049471
 31       0.310148952218
 32       0.085518162943
 33       0.219853176284
 34      -0.012893091163
 35      -0.003558692447
 36      -0.009141453850
 37       0.014029481188
 38       0.003874729269
 39       0.009948441558
 40      -0.008162914762
 41      -0.002262597709
 42      -0.005792775224
 43       0.004739273067
 44       0.001321226347
 45       0.003367297754
 46      -0.002631735749
 47      -0.000723211206
 48      -0.001864227191
 49       0.001261900246
 50       0.000344373730
 51       0.000892587353
 52      -0.000401698936
 53      -0.000109767922
 54      -0.000284213834
 55       0.000016585549
 56      -0.000002421292
 57       0.000037201666
 58      -0.000035211035
 59       0.000041850648
 60       0.000018804615
 61      -0.000003029811
 62       0.000043722551
 63      -0.000041600914
 64       0.000047921556
 65       0.000004639130
 66       0.000000001360
 67       0.000010154671
 68      -0.000008972750
 69       0.000011948471
 70       0.000000963447
 71      -0.000000680771
 72       0.000005653667
 73      -0.000005711888
 74       0.000003629754
 75      -0.000001957732
 76       0.000001400341
 77      -0.000011882321
 78       0.000011982126
 79      -0.000007505224
 80       0.000001835165
 81      -0.000002241111
 82       0.000017027859
 83      -0.000017442299
 84       0.000009011548
 85      -0.000006983942
 86       0.000000359577
 87      -0.000014160807
 88       0.000012794005
 89      -0.000017442726
 90      -0.000000923666
 91       0.000000656734
 92      -0.000005656580
 93       0.000005694481
 94      -0.000003567050
 95       0.000000402358
 96      -0.000000209114
 97       0.000001986870
 98      -0.000001975685
 99       0.000001394887
100      -0.000006239891
101       0.000005706763