[Molden Format]
[Title]
 Molden file created by orca_2mkl for BaseName=/home/nikolayandreadi_2125/_scratch/F_cc/Eu_F_cc

[Atoms] AU
Eu   1  63          0.3798481810         0.5972498344        -1.0480421139 
F    2   9         -1.4896087504        -2.2117657028        -2.9883940109 
F    3   9         -1.4527798778         3.6758461428         0.4181585989 
F    4   9          3.8859704608        -0.1896869299         0.3765279322 
[GTO]
  1 0
s   6 1.0 
  1097819.8713740001      2094.1051919023
   487919.9428330000      -553.4936466776
   216853.3079260000      1227.4145046986
    96379.2479670000       287.0671366721
    42835.2213190000       753.5424106054
    19037.8761420000       575.9766746901
s   1 1.0 
     8461.2782850000       628.7631433054
s   1 1.0 
     3760.5681270000       342.2553045042
s   1 1.0 
     1671.3636120000       186.3001906214
s   1 1.0 
      742.8282720000       101.4089791124
s   1 1.0 
      330.1458990000        55.2000565222
s   1 1.0 
      146.7315110000        30.0471049961
s   1 1.0 
       65.2140050000        16.3555723516
s   1 1.0 
       28.9840020000         8.9028458850
s   1 1.0 
       12.8817790000         4.8460955778
s   1 1.0 
        5.7252350000         2.6378802750
s   1 1.0 
        2.5445490000         1.4358801973
s   1 1.0 
        1.1309110000         0.7815943539
s   1 1.0 
        0.5026270000         0.4254460079
s   1 1.0 
        0.2233900000         0.2315836467
s   1 1.0 
        0.0992840000         0.1260577472
s   1 1.0 
        0.0441260000         0.0686168872
s   1 1.0 
        0.0196120000         0.0373509374
p   5 1.0 
    14914.5995620000      2930.9495136540
     5965.8398250000      1201.0763570229
     2386.3359300000      1902.9439950739
      954.5343720000      1878.8141301970
      381.8137490000      1791.4157676492
p   1 1.0 
      152.7255000000       765.2961568742
p   1 1.0 
       61.0902000000       243.4470529600
p   1 1.0 
       24.4360800000        77.4425260895
p   1 1.0 
        9.7744320000        24.6351096643
p   1 1.0 
        3.9097730000         7.8366331475
p   1 1.0 
        1.5639090000         2.4928975832
p   1 1.0 
        0.6255640000         0.7930120249
p   1 1.0 
        0.2502250000         0.2522629443
p   1 1.0 
        0.1000900000         0.0802469342
p   1 1.0 
        0.0400360000         0.0255272151
p   1 1.0 
        0.0160140000         0.0081201653
d   4 1.0 
     1048.0606430000      4504.7143273632
      381.1129610000      4335.1022993005
      138.5865310000      4042.3256851319
       50.3951020000      2169.6801268913
d   1 1.0 
       18.3254920000       462.7191349861
d   1 1.0 
        6.6638150000        78.7925605433
d   1 1.0 
        2.4232060000        13.4169305260
d   1 1.0 
        0.8811660000         2.2846575564
d   1 1.0 
        0.3204240000         0.3890352011
d   1 1.0 
        0.1165180000         0.0662457271
d   1 1.0 
        0.0423700000         0.0112803453
d   1 1.0 
        0.0154070000         0.0019207760
f   4 1.0 
       29.2179750000      1158.8421481478
        9.7393250000       321.6749227643
        3.2464420000        42.1545037835
        1.0821470000         2.5534487342
f   1 1.0 
        0.3607160000         0.5749396280
f   1 1.0 
        0.1202390000         0.0485402635

  2 0
s   6 1.0 
    35479.1004410000         1.9229128581
     5318.4728983000         2.2734773358
     1210.4810975000         3.4747482552
      342.8551814000         5.2879612972
      112.0194318100         7.1666332516
       40.7147402500         7.7556346254
s   1 1.0 
       16.0396781100         5.7122450312
s   1 1.0 
        6.5038186700         2.9025947842
s   1 1.0 
        1.5440477500         0.9872011154
s   1 1.0 
        0.6122345300        -0.4932856223
s   1 1.0 
        0.2402798000         0.2445952611
p   4 1.0 
       80.2339004800         4.2755032106
       18.5940107400         4.7314752302
        5.6867902700         4.0864798013
        1.9511006300         2.2989954518
p   1 1.0 
        0.6697021100         0.8635593126
p   1 1.0 
        0.2165130000         0.2105208234
d   1 1.0 
        3.1070000000        20.7284714039
d   1 1.0 
        0.8550000000         2.1672588463
f   1 1.0 
        1.9170000000        24.6547062912

  3 0
s   6 1.0 
    35479.1004410000         1.9229128581
     5318.4728983000         2.2734773358
     1210.4810975000         3.4747482552
      342.8551814000         5.2879612972
      112.0194318100         7.1666332516
       40.7147402500         7.7556346254
s   1 1.0 
       16.0396781100         5.7122450312
s   1 1.0 
        6.5038186700         2.9025947842
s   1 1.0 
        1.5440477500         0.9872011154
s   1 1.0 
        0.6122345300        -0.4932856223
s   1 1.0 
        0.2402798000         0.2445952611
p   4 1.0 
       80.2339004800         4.2755032106
       18.5940107400         4.7314752302
        5.6867902700         4.0864798013
        1.9511006300         2.2989954518
p   1 1.0 
        0.6697021100         0.8635593126
p   1 1.0 
        0.2165130000         0.2105208234
d   1 1.0 
        3.1070000000        20.7284714039
d   1 1.0 
        0.8550000000         2.1672588463
f   1 1.0 
        1.9170000000        24.6547062912

  4 0
s   6 1.0 
    35479.1004410000         1.9229128581
     5318.4728983000         2.2734773358
     1210.4810975000         3.4747482552
      342.8551814000         5.2879612972
      112.0194318100         7.1666332516
       40.7147402500         7.7556346254
s   1 1.0 
       16.0396781100         5.7122450312
s   1 1.0 
        6.5038186700         2.9025947842
s   1 1.0 
        1.5440477500         0.9872011154
s   1 1.0 
        0.6122345300        -0.4932856223
s   1 1.0 
        0.2402798000         0.2445952611
p   4 1.0 
       80.2339004800         4.2755032106
       18.5940107400         4.7314752302
        5.6867902700         4.0864798013
        1.9511006300         2.2989954518
p   1 1.0 
        0.6697021100         0.8635593126
p   1 1.0 
        0.2165130000         0.2105208234
d   1 1.0 
        3.1070000000        20.7284714039
d   1 1.0 
        0.8550000000         2.1672588463
f   1 1.0 
        1.9170000000        24.6547062912

[5D]
[7F]
[9G]
[MO]
 Sym=     1a
 Ene= -1.78972238383731E+03
 Spin= Alpha
 Occup= 1.000000
  1      -0.085359195274
  2      -0.096810777827
  3      -0.173193642944
  4      -0.299636788185
  5      -0.342337140032
  6      -0.173493722072
  7      -0.010395700309
  8      -0.003201227008
  9       0.002330227660
 10      -0.001536554429
 11       0.001035716418
 12      -0.000696160802
 13       0.000463058748
 14      -0.000309263187
 15       0.000205267940
 16      -0.000124084453
 17       0.000046820247
 18      -0.000012307138
 19      -0.000000019935
 20      -0.000000083883
 21       0.000000174020
 22       0.000000025288
 23       0.000000074439
 24      -0.000000154567
 25      -0.000000021257
 26      -0.000000060381
 27       0.000000119313
 28       0.000000028476
 29       0.000000068486
 30      -0.000000128171
 31      -0.000000043539
 32      -0.000000095688
 33       0.000000172373
 34       0.000000070320
 35       0.000000150250
 36      -0.000000267412
 37      -0.000000119691
 38      -0.000000258332
 39       0.000000469999
 40       0.000000192379
 41       0.000000426959
 42      -0.000000814283
 43      -0.000000293063
 44      -0.000000599334
 45       0.000001121774
 46       0.000000473504
 47       0.000000904645
 48      -0.000001593438
 49      -0.000000061246
 50      -0.000000155231
 51       0.000000269388
 52       0.000000010657
 53       0.000000030998
 54      -0.000000056090
 55       0.000000155592
 56      -0.000000150823
 57      -0.000000215520
 58      -0.000000023104
 59       0.000000085273
 60      -0.000000220545
 61       0.000000212477
 62       0.000000308463
 63       0.000000029415
 64      -0.000000118490
 65       0.000000338383
 66      -0.000000325044
 67      -0.000000479981
 68      -0.000000038368
 69       0.000000178561
 70      -0.000000613113
 71       0.000000587623
 72       0.000000870431
 73       0.000000068217
 74      -0.000000322795
 75       0.000001168776
 76      -0.000001117870
 77      -0.000001657227
 78      -0.000000130817
 79       0.000000619826
 80      -0.000001818448
 81       0.000001734738
 82       0.000002567865
 83       0.000000211899
 84      -0.000000969750
 85       0.000003299952
 86      -0.000003151592
 87      -0.000004656267
 88      -0.000000392245
 89       0.000001710586
 90      -0.000000234786
 91       0.000000233558
 92       0.000000365418
 93      -0.000000001200
 94      -0.000000110607
 95       0.000000032179
 96      -0.000000033085
 97      -0.000000054435
 98       0.000000003940
 99       0.000000014110
100       0.000000091815
101       0.000000036377
102       0.000000045455
103      -0.000000115336
104       0.000000319986
105       0.000000352300
106      -0.000000099903
107      -0.000000500086
108      -0.000000197903
109      -0.000000248309
110       0.000000616969
111      -0.000001711744
112      -0.000001891597
113       0.000000537581
114       0.000001003766
115       0.000000466886
116       0.000000630849
117      -0.000001301110
118       0.000003655802
119       0.000004074104
120      -0.000001147672
121      -0.000000140679
122       0.000000647624
123      -0.000001220790
124       0.000003433831
125       0.000006267027
126       0.000009805972
127       0.000000317229
128       0.000000497061
129       0.000000329459
130      -0.000001385377
131      -0.000002151449
132      -0.000001434294
133       0.000001133423
134       0.000001952637
135       0.000001137126
136      -0.000000071404
137       0.000000151137
138       0.000000231182
139      -0.000000074997
140       0.000000171976
141       0.000000299049
142      -0.000000763388
143      -0.000001156492
144       0.000000415988
145      -0.000000977653
146       0.000000046098
147      -0.000000005537
148      -0.000000008997
149       0.000000037412
150      -0.000000078337
151      -0.000000060785
152       0.000000007726
153      -0.000000136617
154       0.000000629954
155      -0.000001191291
156       0.000003405403
157       0.000006297188
158       0.000009782522
159       0.000000299553
160      -0.000000519930
161      -0.000000262193
162      -0.000001365349
163       0.000002346452
164       0.000001170944
165       0.000001044008
166      -0.000001913938
167      -0.000001124171
168      -0.000000105765
169      -0.000000064761
170       0.000000188594
171      -0.000000094427
172      -0.000000193889
173       0.000000538701
174       0.000000449400
175      -0.000000968273
176       0.000000568391
177       0.000001101775
178      -0.000000035571
179       0.000000004877
180      -0.000000004409
181      -0.000000023767
182      -0.000000048614
183      -0.000000050068
184       0.000000005474
185      -0.000000134757
186       0.000000621751
187      -0.000001177184
188       0.000003384641
189       0.000006288880
190       0.000009721474
191      -0.000000580302
192       0.000000132470
193      -0.000000247248
194       0.000002662186
195      -0.000000607442
196       0.000001123545
197      -0.000002127328
198       0.000000526473
199      -0.000001028280
200      -0.000000103317
201       0.000000184983
202      -0.000000001837
203       0.000000184816
204      -0.000000100370
205       0.000000543969
206      -0.000001013895
207       0.000000120954
208      -0.000001103604
209       0.000000555640
210      -0.000000029106
211      -0.000000007334
212       0.000000003989
213       0.000000038376
214      -0.000000024240
215      -0.000000036221
216       0.000000024377
 Sym=     1a
 Ene= -2.98750098185810E+02
 Spin= Alpha
 Occup= 1.000000
  1      -0.031728415478
  2      -0.039607861706
  3      -0.071909054902
  4      -0.146779737460
  5      -0.205771731393
  6      -0.087373497015
  7       0.464203936003
  8       0.606554039528
  9       0.101196381894
 10       0.004001861945
 11      -0.003491519366
 12       0.002490602753
 13      -0.001809700298
 14       0.001257421611
 15      -0.000841954876
 16       0.000511323424
 17      -0.000193396111
 18       0.000050926275
 19      -0.000000259964
 20       0.000000102076
 21       0.000000059174
 22      -0.000000387102
 23       0.000000198731
 24      -0.000000063624
 25      -0.000000219972
 26       0.000000342909
 27      -0.000000393591
 28       0.000000106425
 29       0.000000245587
 30      -0.000000471156
 31       0.000000069000
 32       0.000000169091
 33      -0.000000260690
 34      -0.000000240512
 35      -0.000000524313
 36       0.000000923430
 37       0.000000459750
 38       0.000000995175
 39      -0.000001811067
 40      -0.000000765871
 41      -0.000001720129
 42       0.000003308189
 43       0.000001199388
 44       0.000002492282
 45      -0.000004721991
 46      -0.000001940918
 47      -0.000003716096
 48       0.000006565275
 49       0.000000247077
 50       0.000000631834
 51      -0.000001099178
 52      -0.000000042314
 53      -0.000000125574
 54       0.000000228310
 55      -0.000021262701
 56       0.000020610206
 57       0.000029283449
 58       0.000003316999
 59      -0.000011765285
 60       0.000000577035
 61      -0.000000563956
 62      -0.000000847461
 63      -0.000000041104
 64       0.000000309332
 65      -0.000000588840
 66       0.000000562341
 67       0.000000826524
 68       0.000000073267
 69      -0.000000309763
 70       0.000002274556
 71      -0.000002181006
 72      -0.000003233240
 73      -0.000000249168
 74       0.000001200335
 75      -0.000004872042
 76       0.000004658689
 77       0.000006902175
 78       0.000000550077
 79      -0.000002591753
 80       0.000007671601
 81      -0.000007315861
 82      -0.000010823808
 83      -0.000000901024
 84       0.000004104228
 85      -0.000013619586
 86       0.000013005196
 87       0.000019208927
 88       0.000001625621
 89      -0.000007066587
 90       0.000000948282
 91      -0.000000944403
 92      -0.000001480160
 93       0.000000008502
 94       0.000000445722
 95      -0.000000127496
 96       0.000000131583
 97       0.000000217618
 98      -0.000000017279
 99      -0.000000055494
100      -0.000000427984
101      -0.000000165630
102      -0.000000197027
103       0.000000532683
104      -0.000001464650
105      -0.000001615479
106       0.000000459438
107       0.000002179373
108       0.000000858338
109       0.000001072114
110      -0.000002682278
111       0.000007434266
112       0.000008216818
113      -0.000002336535
114      -0.000004182133
115      -0.000001940987
116      -0.000002620178
117       0.000005415482
118      -0.000015211703
119      -0.000016951584
120       0.000004776514
121       0.000000482595
122      -0.000002436960
123       0.000004859526
124      -0.000014117816
125      -0.000025632697
126      -0.000040222810
127      -0.000001359709
128      -0.000002128768
129      -0.000001411620
130       0.000005742855
131       0.000008923184
132       0.000005949956
133      -0.000004591014
134      -0.000007938074
135      -0.000004606489
136       0.000000303789
137      -0.000000659525
138      -0.000001008753
139       0.000000334098
140      -0.000000765692
141      -0.000001260051
142       0.000003242861
143       0.000004914942
144      -0.000001778585
145       0.000004173200
146      -0.000000222263
147       0.000000028881
148       0.000000046302
149      -0.000000176511
150       0.000000374474
151       0.000000291986
152      -0.000000039102
153       0.000000470036
154      -0.000002375755
155       0.000004753110
156      -0.000014024426
157      -0.000025781676
158      -0.000040131666
159      -0.000001288445
160       0.000002234267
161       0.000001125801
162       0.000005666246
163      -0.000009745133
164      -0.000004862207
165      -0.000004219671
166       0.000007760309
167       0.000004577338
168       0.000000461142
169       0.000000298912
170      -0.000000826252
171       0.000000425414
172       0.000000861211
173      -0.000002288633
174      -0.000001931829
175       0.000004122133
176      -0.000002436519
177      -0.000004702236
178       0.000000182124
179      -0.000000024963
180       0.000000029873
181       0.000000122380
182       0.000000247172
183       0.000000259762
184      -0.000000022435
185       0.000000464065
186      -0.000002346623
187       0.000004700387
188      -0.000013946202
189      -0.000025755678
190      -0.000039883408
191       0.000002496475
192      -0.000000569854
193       0.000001063011
194      -0.000011059505
195       0.000002521976
196      -0.000004666672
197       0.000008617386
198      -0.000002135482
199       0.000004180675
200       0.000000453120
201      -0.000000818220
202       0.000000022848
203      -0.000000828561
204       0.000000444076
205      -0.000002315665
206       0.000004326420
207      -0.000000534067
208       0.000004722314
209      -0.000002370109
210       0.000000156004
211       0.000000045294
212      -0.000000018114
213      -0.000000205354
214       0.000000123678
215       0.000000193546
216      -0.000000133502
 Sym=     1a
 Ene= -2.66584926844827E+02
 Spin= Alpha
 Occup= 1.000000
  1      -0.000000005457
  2      -0.000000006404
  3      -0.000000013055
  4      -0.000000020751
  5      -0.000000043926
  6       0.000000008203
  7      -0.000000001201
  8       0.000000099809
  9       0.000000147490
 10       0.000000086262
 11      -0.000000270960
 12       0.000000506137
 13      -0.000001266319
 14       0.000002530016
 15      -0.000000462190
 16      -0.000005081789
 17       0.000001359398
 18      -0.000000245296
 19      -0.028763333432
 20      -0.299349538090
 21      -0.185295132538
 22      -0.039050159645
 23      -0.406408029008
 24      -0.251563543646
 25      -0.024898101772
 26      -0.259122759525
 27      -0.160395053798
 28      -0.001331479998
 29      -0.013857280949
 30      -0.008577560121
 31      -0.000450969571
 32      -0.004693060735
 33      -0.002904952549
 34       0.000311794513
 35       0.003244331294
 36       0.002008180484
 37      -0.000189392984
 38      -0.001970467400
 39      -0.001219630256
 40       0.000119511438
 41       0.001245062170
 42       0.000770525581
 43      -0.000075218429
 44      -0.000786456379
 45      -0.000486599350
 46       0.000036997294
 47       0.000370155578
 48       0.000229347719
 49      -0.000015134167
 50      -0.000152996342
 51      -0.000094810219
 52       0.000004855551
 53       0.000049450650
 54       0.000030636133
 55       0.000000134257
 56       0.000000195925
 57       0.000000045412
 58       0.000000079121
 59       0.000000365463
 60       0.000000409317
 61       0.000000915828
 62       0.000000356118
 63       0.000000091967
 64       0.000001717383
 65      -0.000000757473
 66      -0.000003777216
 67      -0.000000786155
 68       0.000000075755
 69      -0.000007306435
 70       0.000002244335
 71       0.000009455051
 72       0.000002179518
 73      -0.000000006393
 74       0.000018211235
 75      -0.000004988235
 76      -0.000020616422
 77      -0.000004679253
 78      -0.000000053650
 79      -0.000039745247
 80       0.000008193445
 81       0.000032968220
 82       0.000007260577
 83       0.000000271361
 84       0.000063636622
 85       0.000001502868
 86       0.000002368168
 87      -0.000000308308
 88       0.000000710823
 89       0.000004924091
 90      -0.000001895249
 91      -0.000007847238
 92      -0.000001509629
 93      -0.000000098424
 94      -0.000015167135
 95       0.000000550069
 96       0.000002334905
 97       0.000000452335
 98       0.000000018829
 99       0.000004513813
100      -0.000003975849
101       0.000000398329
102      -0.000000065232
103      -0.000002322356
104       0.000000434523
105      -0.000000440523
106      -0.000000248147
107       0.000029403079
108      -0.000004786610
109       0.000000401410
110       0.000016985692
111      -0.000004583188
112       0.000004785201
113       0.000002281208
114      -0.000009829999
115       0.000002451917
116       0.000000468632
117      -0.000006752232
118       0.000002951901
119      -0.000001553212
120       0.000000364192
121      -0.000001003661
122       0.000005268572
123      -0.000010832660
124       0.000032491430
125       0.000034026263
126      -0.000009975236
127       0.000006473932
128       0.000008307978
129       0.000005835513
130      -0.000025579675
131      -0.000034457075
132      -0.000024047564
133      -0.000011366374
134      -0.000025202625
135      -0.000017203239
136      -0.000001101241
137       0.000003586440
138       0.000004493926
139      -0.000001182767
140       0.000005155683
141       0.000005108938
142      -0.000016669569
143      -0.000022192554
144       0.000006979876
145      -0.000023999627
146       0.000001061423
147      -0.000000038962
148       0.000000029715
149      -0.000000233433
150      -0.000001721131
151      -0.000000881936
152       0.000001165185
153       0.000000838014
154      -0.000004424579
155       0.000009198664
156      -0.000028646441
157      -0.000029916339
158       0.000014333949
159      -0.000005977922
160       0.000008116328
161       0.000003657623
162       0.000024155266
163      -0.000035076925
164      -0.000016130024
165       0.000009934309
166      -0.000027529396
167      -0.000013980654
168       0.000002227205
169       0.000002324549
170      -0.000002831952
171       0.000001433057
172       0.000005063675
173      -0.000010630827
174      -0.000011253331
175       0.000015482748
176      -0.000008932636
177      -0.000024269002
178       0.000000578936
179      -0.000000592794
180       0.000000660796
181      -0.000000433493
182       0.000000947924
183       0.000000994983
184       0.000001424205
185       0.000000089142
186      -0.000000472632
187       0.000000990185
188      -0.000003164248
189      -0.000003388719
190       0.000001648107
191       0.000001079550
192      -0.000001608049
193      -0.000000330130
194      -0.000004699417
195       0.000004902940
196       0.000000260455
197      -0.000003058640
198      -0.000006079253
199      -0.000005068983
200       0.000000930679
201       0.000000589268
202       0.000000619164
203      -0.000000073605
204       0.000002000161
205      -0.000003446545
206      -0.000001159657
207      -0.000002193483
208       0.000001183744
209      -0.000007038812
210      -0.000000171855
211       0.000001235878
212      -0.000000465361
213       0.000001079390
214       0.000000964199
215      -0.000000857207
216      -0.000001905771
 Sym=     1a
 Ene= -2.66584664760789E+02
 Spin= Alpha
 Occup= 1.000000
  1      -0.000000034462
  2      -0.000000044518
  3      -0.000000075078
  4      -0.000000175904
  5      -0.000000194907
  6      -0.000000171138
  7       0.000000797353
  8       0.000000462580
  9       0.000000154848
 10      -0.000000772223
 11       0.000001501663
 12      -0.000002455755
 13       0.000004272893
 14      -0.000006454213
 15       0.000004005777
 16       0.000003315008
 17      -0.000001603427
 18       0.000000346508
 19       0.330979842665
 20      -0.086354898002
 21       0.088130846418
 22       0.449350770798
 23      -0.117238692294
 24       0.119649781763
 25       0.286501817366
 26      -0.074750274015
 27       0.076287567268
 28       0.015321463613
 29      -0.003997492118
 30       0.004079695100
 31       0.005188329280
 32      -0.001353624038
 33       0.001381482850
 34      -0.003585542338
 35       0.000935400984
 36      -0.000954671609
 37       0.002175832327
 38      -0.000567568263
 39       0.000579233360
 40      -0.001372033085
 41       0.000357972351
 42      -0.000365022887
 43       0.000864046818
 44      -0.000225666749
 45       0.000229633842
 46      -0.000401724951
 47       0.000103697655
 48      -0.000107541201
 49       0.000168209167
 50      -0.000043562626
 51       0.000045020922
 52      -0.000054505991
 53       0.000014143048
 54      -0.000014570906
 55      -0.000000013043
 56       0.000000063353
 57      -0.000000097962
 58       0.000000199014
 59       0.000000043619
 60      -0.000000236272
 61       0.000000813088
 62      -0.000001080489
 63       0.000001789529
 64      -0.000000251807
 65       0.000000511591
 66      -0.000004079220
 67       0.000004481344
 68      -0.000006345294
 69       0.000001434159
 70      -0.000001379618
 71       0.000009826099
 72      -0.000011083123
 73       0.000015977065
 74      -0.000003380801
 75       0.000003042899
 76      -0.000021485809
 77       0.000024154872
 78      -0.000034910475
 79       0.000007328482
 80      -0.000005005042
 81       0.000034713493
 82      -0.000038781217
 83       0.000056352149
 84      -0.000011644837
 85      -0.000000971124
 86       0.000004700072
 87      -0.000004654305
 88       0.000007691014
 89      -0.000000953053
 90       0.000001191221
 91      -0.000008814713
 92       0.000009739958
 93      -0.000014022482
 94       0.000002884003
 95      -0.000000347501
 96       0.000002606486
 97      -0.000002875387
 98       0.000004128223
 99      -0.000000860547
100       0.000001793111
101       0.000000810333
102      -0.000000566702
103      -0.000003040174
104      -0.000001397830
105      -0.000000220450
106      -0.000001811500
107      -0.000013660565
108      -0.000007860970
109       0.000006629380
110       0.000023180974
111       0.000011911232
112       0.000001543355
113       0.000013645363
114       0.000004045359
115       0.000003145703
116      -0.000003316914
117      -0.000006736159
118      -0.000004624668
119      -0.000000449911
120      -0.000003217149
121       0.000000444979
122      -0.000002332483
123       0.000004783517
124      -0.000014178436
125      -0.000014087086
126       0.000007013494
127      -0.000001322859
128      -0.000004749610
129      -0.000002573245
130       0.000006960987
131       0.000018046778
132       0.000010493591
133       0.000014053487
134       0.000006349281
135       0.000008460889
136       0.000000510775
137      -0.000000554189
138      -0.000002738343
139       0.000002679301
140      -0.000001472103
141      -0.000002341338
142       0.000004012537
143       0.000012165784
144      -0.000009897359
145       0.000007987390
146      -0.000000480160
147      -0.000000107142
148       0.000000028221
149      -0.000001987201
150      -0.000000080564
151       0.000000925065
152       0.000001924360
153       0.000000560470
154      -0.000002953204
155       0.000006117686
156      -0.000018774219
157      -0.000018587235
158       0.000012760772
159      -0.000002263406
160       0.000005952416
161       0.000003445851
162       0.000011058837
163      -0.000024555924
164      -0.000013439724
165       0.000016402334
166      -0.000016921321
167      -0.000004541647
168       0.000000575827
169       0.000001321826
170      -0.000003341597
171       0.000002754938
172       0.000001932877
173      -0.000004104831
174      -0.000006718653
175       0.000014938587
176      -0.000011688578
177      -0.000011321497
178       0.000000665323
179       0.000000622182
180      -0.000000870435
181       0.000001627910
182       0.000000540473
183       0.000000291873
184      -0.000001628167
185      -0.000000979681
186       0.000005176481
187      -0.000010778731
188       0.000033670131
189       0.000033811806
190      -0.000023590036
191      -0.000011506819
192       0.000002573057
193      -0.000004898362
194       0.000049243449
195      -0.000011050718
196       0.000020666623
197       0.000037904784
198      -0.000008262624
199       0.000013854113
200      -0.000002166825
201       0.000004765300
202      -0.000001141017
203       0.000005376999
204      -0.000002435097
205       0.000011346354
206      -0.000023919790
207       0.000005564722
208      -0.000027280220
209       0.000012551120
210      -0.000000807352
211      -0.000000012593
212       0.000000067898
213       0.000001122920
214      -0.000000405563
215      -0.000000729872
216       0.000000554327
 Sym=     1a
 Ene= -2.66574549454110E+02
 Spin= Alpha
 Occup= 1.000000
  1      -0.000000039010
  2      -0.000000059112
  3      -0.000000059620
  4      -0.000000295886
  5      -0.000000006823
  6      -0.000000751451
  7       0.000002344183
  8      -0.000000610919
  9       0.000001471482
 10      -0.000006952824
 11       0.000012829521
 12      -0.000020483221
 13       0.000033060874
 14      -0.000045769945
 15       0.000034587185
 16       0.000001667327
 17      -0.000008005499
 18       0.000001886872
 19      -0.119990722006
 20      -0.166451747317
 21       0.287533649718
 22      -0.162905998798
 23      -0.225984053138
 24       0.390371516664
 25      -0.103853760292
 26      -0.144066468157
 27       0.248864653515
 28      -0.005549305228
 29      -0.007698042938
 30       0.013297841888
 31      -0.001878768804
 32      -0.002606189023
 33       0.004501966838
 34       0.001289377788
 35       0.001788527838
 36      -0.003089475251
 37      -0.000769068994
 38      -0.001066666877
 39       0.001842473098
 40       0.000461009783
 41       0.000639198346
 42      -0.001104088754
 43      -0.000269514199
 44      -0.000373511942
 45       0.000645251670
 46       0.000149169248
 47       0.000206872130
 48      -0.000356841644
 49      -0.000069410280
 50      -0.000096359226
 51       0.000166330226
 52       0.000022059038
 53       0.000030621092
 54      -0.000052868498
 55      -0.000000101984
 56      -0.000000021575
 57       0.000000139934
 58       0.000000072066
 59       0.000000001437
 60      -0.000000307908
 61       0.000000260447
 62       0.000000420912
 63       0.000000030700
 64      -0.000000133114
 65       0.000000231265
 66      -0.000000366785
 67      -0.000000490292
 68       0.000000046552
 69       0.000000198422
 70      -0.000000973715
 71       0.000001056794