[Molden Format]
[Title]
 Molden file created by orca_2mkl for BaseName=/home/smirnovaanastasia2304_2125/_scratch/O2_cc/Sm_O2_cc

[Atoms] AU
Sm   1  62         -0.1375985187        -0.5514825571        -1.6055925816 
O    2   8         -1.8814321259         2.9924909372        -0.5568059156 
O    3   8          3.1939659787        -0.7793967569        -0.7155882643 
[GTO]
  1 0
s   6 1.0 
  1062932.5401760000      2015.4033414015
   472414.4623000000      -530.2484535570
   209961.9832450000      1184.0193668322
    93316.4369980000       281.7673601451
    41473.9719990000       732.4402389394
    18432.8764440000       565.1951099566
s   1 1.0 
     8192.3895310000       613.7168364017
s   1 1.0 
     3641.0620140000       334.0651324018
s   1 1.0 
     1618.2497840000       181.8420256088
s   1 1.0 
      719.2221260000        98.9822614294
s   1 1.0 
      319.6542780000        53.8791186583
s   1 1.0 
      142.0685680000        29.3280774453
s   1 1.0 
       63.1415860000        15.9641833483
s   1 1.0 
       28.0629270000         8.6898007217
s   1 1.0 
       12.4724120000         4.7301283855
s   1 1.0 
        5.5432940000         2.5747556920
s   1 1.0 
        2.4636860000         1.4015193847
s   1 1.0 
        1.0949720000         0.7628907560
s   1 1.0 
        0.4866540000         0.4152649871
s   1 1.0 
        0.2162910000         0.2260418893
s   1 1.0 
        0.0961290000         0.1230412999
s   1 1.0 
        0.0427240000         0.0669752004
s   1 1.0 
        0.0189880000         0.0364560415
p   5 1.0 
    14404.1721250000      2744.8949604333
     5761.6688500000      1139.8678591343
     2304.6675400000      1806.9940214775
      921.8670160000      1796.2052381751
      368.7468060000      1716.9611649775
p   1 1.0 
      147.4987230000       732.6986870548
p   1 1.0 
       58.9994890000       233.0775265407
p   1 1.0 
       23.5997960000        74.1438953273
p   1 1.0 
        9.4399180000        23.5857866190
p   1 1.0 
        3.7759670000         7.5028337885
p   1 1.0 
        1.5103870000         2.3867140330
p   1 1.0 
        0.6041550000         0.7592338375
p   1 1.0 
        0.2416620000         0.2415185789
p   1 1.0 
        0.0966650000         0.0768292612
p   1 1.0 
        0.0386660000         0.0244400250
p   1 1.0 
        0.0154660000         0.0077743233
d   4 1.0 
     1004.1583960000      4186.2867605126
      365.1485080000      4040.4728439300
      132.7812750000      3762.5495192093
       48.2841000000      2011.2515485290
d   1 1.0 
       17.5578550000       429.3338542770
d   1 1.0 
        6.3846740000        73.1076554091
d   1 1.0 
        2.3217000000        12.4488937692
d   1 1.0 
        0.8442540000         2.1198154627
d   1 1.0 
        0.3070020000         0.3609667439
d   1 1.0 
        0.1116370000         0.0614659161
d   1 1.0 
        0.0405950000         0.0104663930
d   1 1.0 
        0.0147620000         0.0017822728
f   4 1.0 
       27.1800850000       996.9794071247
        9.0600280000       272.9712358672
        3.0200090000        35.7157423366
        1.0066700000         2.1818001987
f   1 1.0 
        0.3355570000         0.4886233996
f   1 1.0 
        0.1118520000         0.0412523340

  2 0
s   6 1.0 
    27032.3826310000         1.4645050749
     4052.3871392000         1.8244031008
      922.3272271000         2.8547160967
      261.2407098900         4.3654874290
       85.3546413500         5.8940772662
       31.0350352400         6.2963020147
s   1 1.0 
       12.2608607300         4.6698272139
s   1 1.0 
        4.9987076000         2.3826123703
s   1 1.0 
        1.1703108200         0.8019291632
s   1 1.0 
        0.4647474100        -0.4011648063
s   1 1.0 
        0.1850453600         0.2010799377
p   4 1.0 
       63.2749548000         3.0898340730
       14.6270493800         3.3923831935
        4.4501223500         2.9482801524
        1.5275799600         1.7113350234
p   1 1.0 
        0.5293511800         0.6436057935
p   1 1.0 
        0.1747842100         0.1610897223
d   1 1.0 
        2.3140000000        12.3767310624
d   1 1.0 
        0.6450000000         1.3234257612
f   1 1.0 
        1.4280000000        12.7097950062

  3 0
s   6 1.0 
    27032.3826310000         1.4645050749
     4052.3871392000         1.8244031008
      922.3272271000         2.8547160967
      261.2407098900         4.3654874290
       85.3546413500         5.8940772662
       31.0350352400         6.2963020147
s   1 1.0 
       12.2608607300         4.6698272139
s   1 1.0 
        4.9987076000         2.3826123703
s   1 1.0 
        1.1703108200         0.8019291632
s   1 1.0 
        0.4647474100        -0.4011648063
s   1 1.0 
        0.1850453600         0.2010799377
p   4 1.0 
       63.2749548000         3.0898340730
       14.6270493800         3.3923831935
        4.4501223500         2.9482801524
        1.5275799600         1.7113350234
p   1 1.0 
        0.5293511800         0.6436057935
p   1 1.0 
        0.1747842100         0.1610897223
d   1 1.0 
        2.3140000000        12.3767310624
d   1 1.0 
        0.6450000000         1.3234257612
f   1 1.0 
        1.4280000000        12.7097950062

[5D]
[7F]
[9G]
[MO]
 Sym=     1a
 Ene= -1.72759393781733E+03
 Spin= Alpha
 Occup= 1.000000
  1       0.083754291030
  2       0.095681108467
  3       0.172394060626
  4       0.299420172575
  5       0.343687078209
  6       0.174636104469
  7       0.010623490392
  8       0.003174300999
  9      -0.002309680477
 10       0.001521649853
 11      -0.001026095963
 12       0.000689151333
 13      -0.000456701794
 14       0.000302202540
 15      -0.000200091853
 16       0.000130292020
 17      -0.000045442663
 18       0.000011770544
 19      -0.000000244201
 20      -0.000000618762
 21      -0.000000345746
 22       0.000000697523
 23       0.000000470102
 24       0.000000415283
 25      -0.000000371032
 26      -0.000000417046
 27      -0.000000294685
 28       0.000000426839
 29       0.000000478779
 30       0.000000338621
 31      -0.000000553175
 32      -0.000000681592
 33      -0.000000465893
 34       0.000000768645
 35       0.000001096113
 36       0.000000713354
 37      -0.000001144850
 38      -0.000001930034
 39      -0.000001194062
 40       0.000001248728
 41       0.000003409993
 42       0.000001879506
 43       0.000000311600
 44      -0.000005498055
 45      -0.000002338963
 46       0.000006115713
 47       0.000011125471
 48       0.000006739288
 49      -0.000000762907
 50      -0.000001526038
 51      -0.000000901811
 52       0.000000158380
 53       0.000000237094
 54       0.000000151962
 55      -0.000000124455
 56      -0.000000019960
 57      -0.000000023313
 58       0.000000090445
 59      -0.000000236895
 60       0.000000198676
 61      -0.000000001287
 62      -0.000000034297
 63      -0.000000083157
 64       0.000000292646
 65      -0.000000397826
 66       0.000000073946
 67       0.000000140624
 68       0.000000150157
 69      -0.000000452410
 70       0.000000747170
 71      -0.000000162260
 72      -0.000000313863
 73      -0.000000239834
 74       0.000000789687
 75      -0.000001394786
 76       0.000000246878
 77       0.000000656064
 78       0.000000285486
 79      -0.000001502390
 80       0.000001891586
 81       0.000000056691
 82      -0.000001109480
 83       0.000000372107
 84       0.000002399509
 85      -0.000006519131
 86       0.000001154469
 87       0.000002911202
 88       0.000001550888
 89      -0.000007121889
 90       0.000000453023
 91      -0.000000044485
 92      -0.000000324639
 93       0.000000103729
 94       0.000000462700
 95      -0.000000046011
 96       0.000000002336
 97       0.000000047039
 98      -0.000000032623
 99      -0.000000040813
100      -0.000000138665
101      -0.000000047768
102      -0.000000065927
103       0.000000036807
104      -0.000000091929
105      -0.000000288129
106       0.000000064383
107       0.000000624792
108       0.000000114973
109       0.000000370449
110      -0.000000023172
111       0.000000489132
112       0.000001317300
113      -0.000000310030
114      -0.000002193640
115      -0.000000591197
116      -0.000001218694
117       0.000000199762
118      -0.000001796427
119      -0.000004757581
120       0.000001292159
121       0.000000179549
122      -0.000000829665
123       0.000001562483
124      -0.000004650896
125      -0.000009432937
126      -0.000018852461
127      -0.000000327760
128       0.000000718118
129       0.000000220127
130       0.000001439688
131      -0.000003089622
132      -0.000000938292
133      -0.000002693867
134       0.000006336587
135       0.000002001345
136       0.000000121408
137       0.000000038021
138      -0.000000115563
139       0.000000125398
140       0.000000169814
141      -0.000000806273
142      -0.000000328668
143       0.000000764573
144      -0.000000917044
145      -0.000001227199
146       0.000000127258
147      -0.000000049311
148       0.000000117474
149       0.000000100971
150       0.000000122785
151       0.000000240338
152      -0.000000066269
153       0.000000056586
154      -0.000000243929
155       0.000000412194
156      -0.000001929625
157      -0.000008851833
158      -0.000021644928
159      -0.000000375094
160       0.000000084208
161      -0.000000074310
162      -0.000001954443
163      -0.000000079813
164      -0.000000616550
165       0.000005471423
166       0.000000732303
167       0.000001951081
168      -0.000000224647
169       0.000000234241
170      -0.000000024640
171       0.000000452569
172      -0.000000075857
173       0.000000478911
174      -0.000000484703
175       0.000000060125
176      -0.000000958374
177       0.000000185344
178      -0.000000521322
179      -0.000000649165
180       0.000000067836
181       0.000000716937
182      -0.000000109697
183      -0.000001073840
184       0.000000286234
 Sym=     1a
 Ene= -2.87010650141582E+02
 Spin= Alpha
 Occup= 1.000000
  1       0.030995128333
  2       0.038937701984
  3       0.071243571695
  4       0.145978609540
  5       0.206181531709
  6       0.090526333038
  7      -0.459954845055
  8      -0.609611383828
  9      -0.104110821793
 10      -0.003878202549
 11       0.003359008945
 12      -0.002397619402
 13       0.001745538039
 14      -0.001203554157
 15       0.000804647754
 16      -0.000526368193
 17       0.000183935955
 18      -0.000047733830
 19      -0.000031499325
 20       0.000004735543
 21      -0.000007324332
 22      -0.000044553410
 23       0.000007357212
 24      -0.000010064203
 25      -0.000034558113
 26       0.000006841709
 27      -0.000007312304
 28      -0.000000764505
 29       0.000001143995
 30       0.000000259170
 31      -0.000000996062
 32       0.000001685486
 33       0.000000450981
 34      -0.000002027005
 35      -0.000003968598
 36      -0.000002359359
 37       0.000003835162
 38       0.000007445401
 39       0.000004433843
 40      -0.000004617540
 41      -0.000013662754
 42      -0.000007416299
 43      -0.000000459114
 44       0.000022466387
 45       0.000009799923
 46      -0.000024655287
 47      -0.000045006012
 48      -0.000027237607
 49       0.000002992526
 50       0.000006137529
 51       0.000003604440
 52      -0.000000614898
 53      -0.000000950041
 54      -0.000000603050
 55       0.000015820340
 56       0.000002511161
 57       0.000004398196
 58      -0.000013491827
 59       0.000030919848
 60      -0.000001738900
 61       0.000000933121
 62       0.000000405669
 63       0.000001667413
 64      -0.000001335424
 65       0.000001217446
 66      -0.000000666910
 67      -0.000000690129
 68      -0.000000610103
 69       0.000000665274
 70      -0.000003200403
 71       0.000000966992
 72       0.000001328593
 73       0.000001369094
 74      -0.000003048114
 75       0.000005847191
 76      -0.000001151057
 77      -0.000002720209
 78      -0.000001374102
 79       0.000006169309
 80      -0.000008146569
 81       0.000000118525
 82       0.000004584773
 83      -0.000000912488
 84      -0.000009993329
 85       0.000026468426
 86      -0.000004724627
 87      -0.000011808937
 88      -0.000006355550
 89       0.000028875266
 90      -0.000001817778
 91       0.000000183407
 92       0.000001314096
 93      -0.000000426383
 94      -0.000001843085
 95       0.000000183785
 96      -0.000000011935
 97      -0.000000191372
 98       0.000000132092
 99       0.000000157493
100       0.000000827894
101       0.000000333100
102       0.000000325283
103      -0.000000246007
104       0.000000448705
105       0.000001593783
106      -0.000000391127
107      -0.000002874220
108      -0.000000694323
109      -0.000001577999
110       0.000000316595
111      -0.000002125167
112      -0.000006007044
113       0.000001418201
114       0.000008997851
115       0.000002461789
116       0.000004967455
117      -0.000000865937
118       0.000007332335
119       0.000019491539
120      -0.000005295087
121      -0.000000626340
122       0.000003127640
123      -0.000006169291
124       0.000018854713
125       0.000038092393
126       0.000076194399
127       0.000001364957
128      -0.000003009867
129      -0.000000925225
130      -0.000005861790
131       0.000012597752
132       0.000003828243
133       0.000010829356
134      -0.000025532037
135      -0.000008071268
136      -0.000000530540
137      -0.000000173701
138       0.000000512039
139      -0.000000566535
140      -0.000000747263
141       0.000003361945
142       0.000001379553
143      -0.000003205261
144       0.000003858377
145       0.000005117778
146      -0.000000547425
147       0.000000212298
148      -0.000000507073
149      -0.000000437531
150      -0.000000534090
151      -0.000001039108
152       0.000000290531
153      -0.000000192908
154       0.000000869142
155      -0.000001601192
156       0.000008139523
157       0.000036399517
158       0.000087252673
159       0.000001407888
160      -0.000000348393
161       0.000000264623
162       0.000008579033
163       0.000000290742
164       0.000002679905
165      -0.000021818501
166      -0.000003021576
167      -0.000007824971
168       0.000000914377
169      -0.000000949206
170       0.000000100222
171      -0.000001837128
172       0.000000314049
173      -0.000001784705
174       0.000001784603
175      -0.000000229987
176       0.000003554561
177      -0.000000722187
178       0.000002063845
179       0.000002573417
180      -0.000000271997
181      -0.000002835100
182       0.000000432323
183       0.000004245172
184      -0.000001140640
 Sym=     1a
 Ene= -2.56362725347545E+02
 Spin= Alpha
 Occup= 1.000000
  1       0.000002808019
  2       0.000003523639
  3       0.000006504157
  4       0.000013178242
  5       0.000019182268
  6       0.000006976504
  7      -0.000042786889
  8      -0.000052149615
  9      -0.000012032030
 10      -0.000000338555
 11       0.000003018001
 12       0.000003063257
 13      -0.000021170033
 14       0.000067464782
 15      -0.000159164276
 16       0.000254530336
 17      -0.000030800718
 18       0.000004679663
 19       0.293778798531
 20      -0.193835498921
 21       0.001188813955
 22       0.400230148805
 23      -0.264071555628
 24       0.001619860896
 25       0.255994686493
 26      -0.168903380509
 27       0.001036862639
 28       0.014014717801
 29      -0.009249265217
 30       0.000055658497
 31       0.004596258237
 32      -0.003030253989
 33       0.000019676342
 34      -0.003189524684
 35       0.002101331141
 36      -0.000014343999
 37       0.001939736313
 38      -0.001277661684
 39       0.000008910908
 40      -0.001222242821
 41       0.000812262025
 42      -0.000002520994
 43       0.000758913645
 44      -0.000523910302
 45      -0.000007023354
 46      -0.000288220662
 47       0.000301998827
 48       0.000048411889
 49       0.000130768180
 50      -0.000108649976
 51      -0.000009424036
 52      -0.000043038223
 53       0.000033791156
 54       0.000002228559
 55      -0.000006410006
 56       0.000002621466
 57      -0.000001642563
 58       0.000009488472
 59      -0.000007965356
 60       0.000001552577
 61       0.000000609948
 62      -0.000000438900
 63       0.000000284547
 64       0.000002971622
 65      -0.000001004706
 66      -0.000004173572
 67       0.000002845285
 68      -0.000008136340
 69      -0.000005151936
 70       0.000000853374
 71       0.000010252474
 72      -0.000006957514
 73       0.000020993625
 74       0.000010073854
 75      -0.000003028589
 76      -0.000020059918
 77       0.000015015820
 78      -0.000042148076
 79      -0.000021006781
 80       0.000009648218
 81       0.000027354874
 82      -0.000024073085
 83       0.000058871635
 84       0.000035209309
 85      -0.000047706468
 86       0.000018953956
 87       0.000016115494
 88       0.000030738390
 89      -0.000041978760
 90       0.000007189993
 91      -0.000012085338
 92       0.000002796112
 93      -0.000022589619
 94      -0.000002179014
 95      -0.000001878690
 96       0.000003702320
 97      -0.000001084164
 98       0.000007025046
 99       0.000001042258
100       0.000000061421
101       0.000002374985
102      -0.000001582982
103      -0.000004908926
104      -0.000002059867
105       0.000000410909
106       0.000002060505
107       0.000003205428
108      -0.000016079090
109       0.000013081749
110       0.000019796863
111       0.000010574034
112       0.000007161984
113       0.000000731063
114      -0.000014968334
115       0.000001640235
116      -0.000011949168
117      -0.000000635078
118      -0.000012576455
119      -0.000033127768
120       0.000002277610
121       0.000001882371
122      -0.000009641603
123       0.000019281949
124      -0.000059162987
125      -0.000092947181
126      -0.000110630228
127      -0.000005974189
128       0.000013799045
129       0.000004323062
130       0.000025009730
131      -0.000054902607
132      -0.000016836457
133      -0.000001073989
134       0.000021389397
135       0.000009126199
136       0.000003089777
137       0.000001546614
138      -0.000003570432
139       0.000004745560
140       0.000004660578
141      -0.000017183807
142      -0.000008382703
143       0.000018531694
144      -0.000024276553
145      -0.000026488947
146       0.000002499268
147      -0.000000362258
148       0.000001679249
149       0.000002745726
150       0.000002073205
151       0.000003517681
152      -0.000002833822
153       0.000002072951
154      -0.000010514874
155       0.000020053781
156      -0.000035757739
157      -0.000023082788
158      -0.000158554070
159       0.000010099842
160      -0.000000849997
161       0.000002624356
162       0.000024295679
163       0.000001494472
164       0.000007904045
165       0.000067792645
166      -0.000006989916
167       0.000017048960
168       0.000005028050
169      -0.000005560743
170       0.000000257067
171      -0.000010090408
172       0.000001099850
173      -0.000009149806
174       0.000008173856
175      -0.000001182138
176       0.000017112160
177      -0.000004929974
178       0.000010299476
179       0.000011234564
180      -0.000000400347
181      -0.000014097598
182       0.000001819732
183       0.000021222412
184      -0.000003146540
 Sym=     1a
 Ene= -2.56355155803832E+02
 Spin= Alpha
 Occup= 1.000000
  1      -0.000000012276
  2      -0.000000014633
  3      -0.000000030665
  4      -0.000000049045
  5      -0.000000102777
  6       0.000000018998
  7       0.000000059170
  8       0.000000332677
  9      -0.000000069222
 10       0.000000535331
 11      -0.000000986913
 12       0.000001521890
 13      -0.000002346436
 14       0.000003128682
 15      -0.000002465950
 16      -0.000000233888
 17       0.000000785250
 18      -0.000000204815
 19      -0.094679791024
 20      -0.141608521368
 21       0.308007187015
 22      -0.128988274319
 23      -0.192922233593
 24       0.419617663246
 25      -0.082493910301
 26      -0.123382569574
 27       0.268364614982
 28      -0.004516092332
 29      -0.006754561798
 30       0.014691798800
 31      -0.001476511365
 32      -0.002208342793
 33       0.004802920550
 34       0.001016152999
 35       0.001519820056
 36      -0.003305093874
 37      -0.000605177988
 38      -0.000905215256
 39       0.001967779992
 40       0.000362814947
 41       0.000542926926
 42      -0.001178894405
 43      -0.000212248299
 44      -0.000318095562
 45       0.000689172914
 46       0.000116304717
 47       0.000177525307
 48      -0.000383411995
 49      -0.000054366423
 50      -0.000082005187
 51       0.000178248577
 52       0.000017323529
 53       0.000026064939
 54      -0.000056702688
 55       0.000003573932
 56       0.000008978244
 57      -0.000002815956
 58      -0.000003822477
 59      -0.000003838153
 60      -0.000001696914
 61      -0.000002452737
 62       0.000000080226
 63       0.000000680138
 64       0.000001391250
 65      -0.000000846647
 66       0.000000342075
 67      -0.000000919341
 68      -0.000000579868
 69       0.000000200615
 70       0.000001192680
 71       0.000000438190
 72       0.000000584255
 73       0.000000203736
 74      -0.000000434272
 75      -0.000003156310
 76      -0.000002486969
 77      -0.000000769352
 78       0.000000190682
 79       0.000001585841
 80       0.000005290224
 81       0.000005211778
 82       0.000000625683
 83      -0.000000900752
 84      -0.000002936794
 85      -0.000004332095
 86      -0.000005199957
 87      -0.000000348473
 88      -0.000000073601
 89       0.000002538069
 90      -0.000001972662
 91      -0.000000326437
 92      -0.000001431058
 93      -0.000000466585
 94       0.000000900199
 95       0.000000637222
 96       0.000000152045
 97       0.000000428418
 98       0.000000136300
 99      -0.000000293381
100      -0.000000544696
101       0.000000247479
102       0.000000743612
103       0.000000074895
104      -0.000000612958
105       0.000000123462
106      -0.000000188084
107      -0.000003460459
108       0.000003761438
109       0.000001937615
110       0.000003203425
111      -0.000003187291
112       0.000002948723
113       0.000001056710
114       0.000004074950
115      -0.000003270812
116      -0.000002821049
117      -0.000003072772
118       0.000003954850
119      -0.000002905076
120      -0.000000374415
121       0.000000023467
122      -0.000000120055
123       0.000000239844
124      -0.000000740352
125      -0.000001260928
126      -0.000001845171
127      -0.000000660483
128      -0.000000680900
129       0.000001932343
130       0.000001706879
131       0.000001349173
132      -0.000004677953
133      -0.000003027500
134      -0.000003571984
135       0.000009035834
136      -0.000001110309
137       0.000001349407
138      -0.000001998389
139      -0.000001312061
140       0.000000248906
141       0.000003423712
142      -0.000004311363
143       0.000006400571
144       0.000004046044
145      -0.000000925028
146       0.000001803698
147       0.000000977828
148      -0.000002744598
149       0.000001090425
150       0.000002710076
151      -0.000000593359
152       0.000002057476
153      -0.000000016150
154       0.000000081826
155      -0.000000154725
156       0.000000236571
157       0.000000056300
158       0.000001469123
159      -0.000000837942
160      -0.000001163786
161       0.000002567460
162       0.000003588123
163       0.000006022321
164      -0.000013294932
165      -0.000005334058
166      -0.000006888234
167       0.000015330185
168      -0.000000600702
169      -0.000001116355
170       0.000000256558
171       0.000000499357
172       0.000000519472
173       0.000004964080
174       0.000009850232
175      -0.000002102589
176      -0.000003653631
177      -0.000004637527
178      -0.000000039984
179      -0.000000219208
180       0.000000015347
181       0.000000017289
182      -0.000000004499
183      -0.000000204621
184      -0.000000018353
 Sym=     1a
 Ene= -2.56353559036044E+02
 Spin= Alpha
 Occup= 1.000000
  1       0.000001306612
  2       0.000001591450
  3       0.000003165599
  4       0.000005597610
  5       0.000010107324
  6       0.000000208283
  7      -0.000012048972
  8      -0.000031877930
  9       0.000004513593
 10      -0.000034690354
 11       0.000063886402
 12      -0.000098130761
 13       0.000150070520
 14      -0.000197140081
 15       0.000147416027
 16       0.000034121991
 17      -0.000053019166
 18       0.000013567080
 19       0.169148707859
 20       0.257409847239
 21       0.170341442437
 22       0.230442789151
 23       0.350685851690
 24       0.232067232482
 25       0.147377819957
 26       0.224275327614
 27       0.148415327660
 28       0.008060588826
 29       0.012270619169
 30       0.008119419235
 31       0.002646146291
 32       0.004022777988
 33       0.002662708377
 34      -0.001827111905
 35      -0.002774852936
 36      -0.001837067577
 37       0.001099622011
 38       0.001668111639
 39       0.001104353260
 40      -0.000674316642
 41      -0.001027951260
 42      -0.000678886651
 43       0.000401725878
 44       0.000634941481
 45       0.000414157449
 46      -0.000103604702
 47      -0.000394262242
 48      -0.000212893963
 49       0.000069143167
 50       0.000154900369
 51       0.000092652849
 52      -0.000023979548
 53      -0.000047962831
 54      -0.000029483457
 55      -0.000001441424
 56       0.000006878472
 57       0.000000972945
 58       0.000007340433
 59       0.000006770408
 60      -0.000000758204
 61      -0.000001563267
 62      -0.000000119742
 63      -0.000001092743
 64      -0.000003222933
 65       0.000003846195
 66      -0.000000956115
 67      -0.000002509003
 68      -0.000000173308
 69       0.000003368159
 70      -0.000009130629
 71       0.000002959852
 72       0.000004960141
 73       0.000002526537
 74      -0.000007753778
 75       0.000018882317
 76      -0.000006285035
 77      -0.000010700804
 78      -0.000004748798
 79       0.000015575364
 80      -0.000029738875
 81       0.000009282530
 82       0.000017545715
 83       0.000005760356
 84      -0.000024914031
 85       0.000003110894
 86       0.000027094399
 87      -0.000022991524
 88       0.000061377758
 89       0.000025315254
 90       0.000007155541
 91      -0.000007960784
 92      -0.000001342732
 93      -0.000012089897
 94       0.000000503756
 95      -0.000002388800
 96       0.000002222474
 97       0.000000700724
 98       0.000003178307
 99      -0.000000564654
100       0.000003828829
101       0.000000890946
102       0.000001187163
103      -0.000000428574
104       0.000000284289
105       0.000004759437
106      -0.000000762604
107      -0.000016488369
108      -0.000004233820
109      -0.000007469236
110       0.000004160123
111      -0.000007535360
112      -0.000029968966
113       0.000004336565
114       0.000008793580
115      -0.000006062530
116       0.000009246678
117       0.000012797873
118       0.000009374165
119       0.000013892743
120      -0.000006753874
121      -0.000001380492
122       0.000007060988
123      -0.000014102902
124       0.000043528728
125       0.000074560059
126       0.000110460624
127       0.000005880566
128      -0.000009102340
129      -0.000002238621
130      -0.000021939429
131       0.000037559360
132       0.000009995606
133       0.000023002155
134      -0.000023672014
135      -0.000003448153
136      -0.000002578670
137      -0.000001031952
138       0.000001347355
139      -0.000001484514
140      -0.000004575468
141       0.000013155807
142       0.000005681048
143      -0.000008943176
144       0.000010738231
145       0.000022605427
146      -0.000000729305
147       0.000001736702
148      -0.000002148134
149       0.000000467060
150      -0.000001547828
151      -0.000003798057
152      -0.000002407104
153       0.000001194243
154      -0.000006051053
155       0.000011453157
156      -0.000017870380
157      -0.000005254410
158      -0.000106184179
159       0.000005016840
160       0.000000974538
161       0.000001975161
162       0.000024751780
163      -0.000010006573
164       0.000002669240
165       0.000050661504
166       0.000000205662
167       0.000015469137
168       0.000002846711
169      -0.000003326661
170      -0.000000043912
171      -0.000005627406
172       0.000000317880
173      -0.000002157948
174       0.000006978379
175       0.000001862525
176       0.000006678445
177       0.000006296254
178       0.000006170541
179       0.000007588283
180      -0.000000784940
181      -0.000008211004
182       0.000001282776
183       0.000012506204
184      -0.000003511084
 Sym=     1a
 Ene= -6.50326266165761E+01
 Spin= Alpha
 Occup= 1.000000
  1       0.014367549440
  2       0.018271859400
  3       0.033769745316
  4       0.070279654273
  5       0.105012942478
  6       0.043010994031
  7      -0.343434048462
  8      -0.695692211822
  9       0.369974322635
 10       0.934410288071
 11       0.066798548881
 12       0.032255281196
 13      -0.022014604513
 14       0.015247030340
 15      -0.010425468545
 16       0.006849046000
 17      -0.002404211428
 18       0.000625413131
 19      -0.000118714782
 20       0.000018194529
 21      -0.000027591268
 22      -0.000184124192
 23       0.000027534634
 24      -0.000043081957
 25      -0.000025478969
 26       0.000007476977
 27      -0.000004371169
 28       0.000469826480
 29      -0.000059984904
 30       0.000114493312
 31       0.000264865253
 32      -0.000080880448
 33       0.000043821371
 34       0.000006667555
 35       0.000057147152
 36       0.000027085506
 37      -0.000031598866
 38      -0.000099639931
 39      -0.000053388370
 40       0.000058597320
 41       0.000179784053
 42       0.000096892199
 43       0.000006997838
 44      -0.000289443534
 45      -0.000125900287
 46       0.000320793942
 47       0.000585410082
 48       0.000354297323
 49      -0.000038592259
 50      -0.000080665569
 51      -0.000047147929
 52       0.000007936657
 53       0.000012581151
 54       0.000007922908