[Molden Format]
[Title]
 Molden file created by orca_2mkl for BaseName=/home/smirnovaanastasia2304_2125/_scratch/HERBD/Ce_Cl_cc

[Atoms] AU
Ce   1  58          0.2484876483         0.3979725444        -0.6684830610 
Cl   2  17         -1.7615025466        -2.6364533055        -3.8600585361 
Cl   3  17         -1.8707551733         4.6402565369         0.3912715755 
Cl   4  17          4.9503568160        -0.1862986509         0.2999562292 
[GTO]
  1 0
s   6 1.0 
   928839.8476080000      1720.3140985147
   412817.7100480000      -444.1821597056
   183474.5377990000      1020.2336346955
    81544.2390220000       259.7896176938
    36241.8840100000       650.9759730419
    16107.5040040000       521.6380289536
s   1 1.0 
     7158.8906690000       554.6824046748
s   1 1.0 
     3181.7291860000       301.9308579294
s   1 1.0 
     1414.1018600000       164.3503420785
s   1 1.0 
      628.4897160000        89.4609949684
s   1 1.0 
      279.3287630000        48.6963977223
s   1 1.0 
      124.1461170000        26.5069615136
s   1 1.0 
       55.1760520000        14.4285622978
s   1 1.0 
       24.5226900000         7.8539145759
s   1 1.0 
       10.8989730000         4.2751295007
s   1 1.0 
        4.8439880000         2.3270857469
s   1 1.0 
        2.1528840000         1.2667052334
s   1 1.0 
        0.9568370000         0.6895068146
s   1 1.0 
        0.4252610000         0.3753200446
s   1 1.0 
        0.1890050000         0.2042984455
s   1 1.0 
        0.0840020000         0.1112057675
s   1 1.0 
        0.0373340000         0.0605324824
s   1 1.0 
        0.0165930000         0.0329498754
p   5 1.0 
    12451.0879550000      2093.6184468688
     4980.4351820000       918.1890284073
     1992.1740730000      1459.1325391631
      796.8696290000      1489.3345987640
      318.7478520000      1436.7756693929
p   1 1.0 
      127.4991410000       610.6947147288
p   1 1.0 
       50.9996560000       194.2670504300
p   1 1.0 
       20.3998630000        61.7979617804
p   1 1.0 
        8.1599450000        19.6584434383
p   1 1.0 
        3.2639780000         6.2535138558
p   1 1.0 
        1.3055910000         1.9892942277
p   1 1.0 
        0.5222360000         0.6328103822
p   1 1.0 
        0.2088950000         0.2013029523
p   1 1.0 
        0.0835580000         0.0640361382
p   1 1.0 
        0.0334230000         0.0203702742
p   1 1.0 
        0.0133690000         0.0064798319
d   4 1.0 
      837.0672260000      3087.2204500310
      304.3880820000      3007.0563312128
      110.6865750000      2778.8369308977
       40.2496640000      1455.8294057635
d   1 1.0 
       14.6362410000       312.2279657221
d   1 1.0 
        5.3222700000        53.1666948838
d   1 1.0 
        1.9353710000         9.0533119406
d   1 1.0 
        0.7037710000         1.5416116227
d   1 1.0 
        0.2559170000         0.2625086217
d   1 1.0 
        0.0930610000         0.0447006239
d   1 1.0 
        0.0338400000         0.0076115517
d   1 1.0 
        0.0123060000         0.0012962079
f   4 1.0 
       22.0128040000       551.2105701769
        7.3376010000       153.4774832704
        2.4458670000        21.6506471485
        0.8152890000         1.5509273827
f   1 1.0 
        0.2717630000         0.3040383153
f   1 1.0 
        0.0905880000         0.0256690083

  2 0
s   7 1.0 
    69507.9909450000         4.1142286333
    10426.1568800000         4.2286655222
     2373.2334061000         5.8493829067
      671.5642007100         8.3358677251
      218.4199979000        10.0089622684
       77.5722497100         8.2783277553
       28.8888152800         2.9822029766
s   1 1.0 
      127.1052718500        26.9794296956
s   1 1.0 
       39.3395829600        11.1952141621
s   1 1.0 
        7.6740680000         3.2860890225
s   1 1.0 
        3.8745627600        -1.9682357562
s   1 1.0 
        1.8385832600         1.1253110111
s   1 1.0 
        0.5022905800        -0.4252324193
s   1 1.0 
        0.1796272300         0.1966478587
p   6 1.0 
      666.5042328400        13.1758105786
      157.6424169000        16.0544655669
       50.2625209800        17.4320614645
       18.5360781100        14.3789566857
        7.2940532800         7.6571902731
        2.9433249000         1.9874071930
p   1 1.0 
        1.0404970800         1.4979287975
p   1 1.0 
        0.3845641500        -0.4316692201
p   1 1.0 
        0.1306964300         0.1120133392
d   2 1.0 
        4.6100000000         7.5524217504
        1.0110000000         2.6539585854
d   1 1.0 
        0.3390000000         0.4293579962
f   1 1.0 
        0.7060000000         2.6050175686

  3 0
s   7 1.0 
    69507.9909450000         4.1142286333
    10426.1568800000         4.2286655222
     2373.2334061000         5.8493829067
      671.5642007100         8.3358677251
      218.4199979000        10.0089622684
       77.5722497100         8.2783277553
       28.8888152800         2.9822029766
s   1 1.0 
      127.1052718500        26.9794296956
s   1 1.0 
       39.3395829600        11.1952141621
s   1 1.0 
        7.6740680000         3.2860890225
s   1 1.0 
        3.8745627600        -1.9682357562
s   1 1.0 
        1.8385832600         1.1253110111
s   1 1.0 
        0.5022905800        -0.4252324193
s   1 1.0 
        0.1796272300         0.1966478587
p   6 1.0 
      666.5042328400        13.1758105786
      157.6424169000        16.0544655669
       50.2625209800        17.4320614645
       18.5360781100        14.3789566857
        7.2940532800         7.6571902731
        2.9433249000         1.9874071930
p   1 1.0 
        1.0404970800         1.4979287975
p   1 1.0 
        0.3845641500        -0.4316692201
p   1 1.0 
        0.1306964300         0.1120133392
d   2 1.0 
        4.6100000000         7.5524217504
        1.0110000000         2.6539585854
d   1 1.0 
        0.3390000000         0.4293579962
f   1 1.0 
        0.7060000000         2.6050175686

  4 0
s   7 1.0 
    69507.9909450000         4.1142286333
    10426.1568800000         4.2286655222
     2373.2334061000         5.8493829067
      671.5642007100         8.3358677251
      218.4199979000        10.0089622684
       77.5722497100         8.2783277553
       28.8888152800         2.9822029766
s   1 1.0 
      127.1052718500        26.9794296956
s   1 1.0 
       39.3395829600        11.1952141621
s   1 1.0 
        7.6740680000         3.2860890225
s   1 1.0 
        3.8745627600        -1.9682357562
s   1 1.0 
        1.8385832600         1.1253110111
s   1 1.0 
        0.5022905800        -0.4252324193
s   1 1.0 
        0.1796272300         0.1966478587
p   6 1.0 
      666.5042328400        13.1758105786
      157.6424169000        16.0544655669
       50.2625209800        17.4320614645
       18.5360781100        14.3789566857
        7.2940532800         7.6571902731
        2.9433249000         1.9874071930
p   1 1.0 
        1.0404970800         1.4979287975
p   1 1.0 
        0.3845641500        -0.4316692201
p   1 1.0 
        0.1306964300         0.1120133392
d   2 1.0 
        4.6100000000         7.5524217504
        1.0110000000         2.6539585854
d   1 1.0 
        0.3390000000         0.4293579962
f   1 1.0 
        0.7060000000         2.6050175686

[5D]
[7F]
[9G]
[MO]
 Sym=     1a
 Ene= -1.49233314057746E+03
 Spin= Alpha
 Occup= 1.000000
  1       0.077686521678
  2       0.091394146374
  3       0.169313290014
  4       0.298567834899
  5       0.348746178631
  6       0.178988838741
  7       0.011506370224
  8       0.003079828592
  9      -0.002236752609
 10       0.001469937211
 11      -0.000996402448
 12       0.000673581705
 13      -0.000451850125
 14       0.000306954093
 15      -0.000202456532
 16       0.000109890826
 17      -0.000038413499
 18       0.000009806319
 19      -0.000000037737
 20      -0.000000011510
 21       0.000000046561
 22       0.000000055856
 23       0.000000033675
 24      -0.000000088198
 25      -0.000000053128
 26      -0.000000039439
 27       0.000000091550
 28       0.000000075848
 29       0.000000067803
 30      -0.000000143243
 31      -0.000000121117
 32      -0.000000116454
 33       0.000000237721
 34       0.000000208092
 35       0.000000203709
 36      -0.000000412749
 37      -0.000000370874
 38      -0.000000356303
 39       0.000000731168
 40       0.000000669814
 41       0.000000611260
 42      -0.000001296226
 43      -0.000000955469
 44      -0.000000858195
 45       0.000001847788
 46       0.000000653905
 47       0.000000725098
 48      -0.000001412987
 49      -0.000000101963
 50      -0.000000040824
 51       0.000000147822
 52       0.000000006303
 53      -0.000000017023
 54       0.000000008476
 55      -0.000000027645
 56       0.000000025571
 57       0.000000038592
 58       0.000000005171
 59      -0.000000015603
 60       0.000000155655
 61      -0.000000142901
 62      -0.000000217539
 63      -0.000000028759
 64       0.000000088102
 65      -0.000000399376
 66       0.000000366170
 67       0.000000558775
 68       0.000000072945
 69      -0.000000226309
 70       0.000000800408
 71      -0.000000733998
 72      -0.000001120479
 73      -0.000000146919
 74       0.000000453088
 75      -0.000001651233
 76       0.000001517324
 77       0.000002312903
 78       0.000000307874
 79      -0.000000931924
 80       0.000003058620
 81      -0.000002821300
 82      -0.000004285586
 83      -0.000000585239
 84       0.000001718045
 85      -0.000003110908
 86       0.000002864073
 87       0.000004345823
 88       0.000000564931
 89      -0.000001762451
 90       0.000000216315
 91      -0.000000161437
 92      -0.000000331419
 93       0.000000007621
 94       0.000000140104
 95       0.000000010385
 96      -0.000000016568
 97      -0.000000007664
 98      -0.000000010210
 99       0.000000003136
100      -0.000000081121
101      -0.000000149330
102      -0.000000205905
103       0.000000106895
104      -0.000000285177
105      -0.000000457310
106       0.000000121047
107       0.000000548252
108       0.000001023031
109       0.000001395742
110      -0.000000733424
111       0.000001935118
112       0.000003104290
113      -0.000000823414
114      -0.000000827138
115      -0.000001364504
116      -0.000001906357
117       0.000001060298
118      -0.000002916453
119      -0.000004481764
120       0.000001170288
121       0.000000103109
122      -0.000000118928
123       0.000000119842
124      -0.000000921417
125      -0.000001984338
126      -0.000001838211
127      -0.000000494557
128      -0.000004377598
129       0.000000091979
130       0.000000145609
131       0.000000153679
132      -0.000000605041
133      -0.000000951995
134      -0.000001005044
135      -0.000000952249
136      -0.000001528880
137      -0.000001624978
138      -0.000000325339
139      -0.000000784625
140      -0.000000970162
141      -0.000000020984
142      -0.000000346050
143      -0.000000512275
144       0.000000094660
145      -0.000000217491
146       0.000000324904
147       0.000001773955
148       0.000002648010
149      -0.000000597349
150       0.000001400969
151      -0.000000396159
152       0.000000430695
153       0.000000654414
154      -0.000000406973
155       0.000000930443
156       0.000000472958
157      -0.000000081015
158       0.000000100582
159      -0.000000115994
160       0.000000116811
161      -0.000000896790
162      -0.000001927057
163      -0.000001776281
164      -0.000000477370
165      -0.000004409435
166       0.000000098514
167      -0.000000202602
168      -0.000000049752
169      -0.000000637970
170       0.000001308591
171       0.000000321443
172      -0.000000984462
173       0.000002052745
174       0.000000493805
175      -0.000000444491
176       0.000001237976
177       0.000000178762
178       0.000000326360
179       0.000000025329
180      -0.000000290687
181       0.000000279056
182       0.000000430037
183      -0.000001598546
184      -0.000000359340
185       0.000001341833
186      -0.000001588564
187      -0.000002278813
188       0.000000433474
189      -0.000000281154
190       0.000000594142
191       0.000000357335
192       0.000000450421
193       0.000001034295
194      -0.000000190548
195       0.000000103341
196      -0.000000119201
197       0.000000120134
198      -0.000000923952
199      -0.000001990665
200      -0.000001845543
201      -0.000000488053
202      -0.000004335413
203      -0.000000224166
204       0.000000028267
205      -0.000000043061
206       0.000001472723
207      -0.000000185078
208       0.000000285109
209       0.000002384737
210      -0.000000298134
211       0.000000443008
212       0.000001237864
213      -0.000000126701
214       0.000000045316
215       0.000000327938
216      -0.000000257055
217      -0.000000075740
218      -0.000000479779
219       0.000000152912
220      -0.000001668984
221       0.000001305756
222       0.000000117271
223       0.000002746420
224      -0.000000780180
225       0.000000394391
226       0.000000686023
227      -0.000000072094
228      -0.000000507506
229       0.000000117375
230       0.000000980228
231      -0.000000389799
 Sym=     1a
 Ene= -2.43411136319166E+02
 Spin= Alpha
 Occup= 1.000000
  1       0.028252314557
  2       0.036412742218
  3       0.068676417906
  4       0.142812894951
  5       0.207394894633
  6       0.102222744160
  7      -0.442908420744
  8      -0.620701889319
  9      -0.116091174429
 10      -0.003493774671
 11       0.002853719148
 12      -0.002054687840
 13       0.001554569564
 14      -0.001109093533
 15       0.000737536372
 16      -0.000401362661
 17       0.000140874767
 18      -0.000036116569
 19      -0.000002953485
 20      -0.000002922005
 21       0.000005878380
 22      -0.000003942564
 23      -0.000003968565
 24       0.000007930380
 25      -0.000003437238
 26      -0.000003570474
 27       0.000007018312
 28      -0.000001095056
 29      -0.000001078688
 30       0.000002141900
 31       0.000000389166
 32       0.000000385567
 33      -0.000000769679
 34      -0.000000766571
 35      -0.000000745671
 36       0.000001512761
 37       0.000001333715
 38       0.000001283785
 39      -0.000002633966
 40      -0.000002477082
 41      -0.000002251893
 42       0.000004788759
 43       0.000003568214
 44       0.000003175215
 45      -0.000006875123
 46      -0.000002367586
 47      -0.000002627888
 48       0.000005119558
 49       0.000000360250
 50       0.000000130607
 51      -0.000000508647
 52      -0.000000021187
 53       0.000000066152
 54      -0.000000036861
 55      -0.000003683729
 56       0.000003446128
 57       0.000005068951
 58       0.000000784173
 59      -0.000002056314
 60       0.000000431778
 61      -0.000000425451
 62      -0.000000568324
 63      -0.000000126733
 64       0.000000231306
 65       0.000000195991
 66      -0.000000165400
 67      -0.000000294792
 68      -0.000000020586
 69       0.000000113171
 70      -0.000002373550
 71       0.000002168378
 72       0.000003336670
 73       0.000000423653
 74      -0.000001345562
 75       0.000005917999
 76      -0.000005436566
 77      -0.000008295790
 78      -0.000001101493
 79       0.000003339002
 80      -0.000011359357
 81       0.000010481510
 82       0.000015919686
 83       0.000002178649
 84      -0.000006376779
 85       0.000011256202
 86      -0.000010363399
 87      -0.000015725455
 88      -0.000002044112
 89       0.000006376626
 90      -0.000000701959
 91       0.000000505455
 92       0.000001089987
 93      -0.000000048111
 94      -0.000000463324
 95      -0.000000059794
 96       0.000000081508
 97       0.000000057731
 98       0.000000042415
 99      -0.000000023446
100       0.000000463186
101       0.000000745914
102       0.000001034453
103      -0.000000604000
104       0.000001639057
105       0.000002486931
106      -0.000000653227
107      -0.000002147456
108      -0.000004000660
109      -0.000005462373
110       0.000002868953
111      -0.000007581061
112      -0.000012154153
113       0.000003221764
114       0.000003071876
115       0.000005073097
116       0.000007086809
117      -0.000003937981
118       0.000010831820
119       0.000016651490
120      -0.000004347730
121      -0.000000153379
122       0.000000225545
123      -0.000000388596
124       0.000002975333
125       0.000006638408
126       0.000006202159
127       0.000001227377
128       0.000015479410
129      -0.000000357407
130      -0.000000565102
131      -0.000000597362
132       0.000002287756
133       0.000003600060
134       0.000003801905
135       0.000003545376
136       0.000005695963
137       0.000006052597
138       0.000001039561
139       0.000002657951
140       0.000003320589
141       0.000000098257
142       0.000001328429
143       0.000001971348
144      -0.000000372039
145       0.000000852023
146      -0.000001247928
147      -0.000006679198
148      -0.000009981723
149       0.000002262005
150      -0.000005292764
151       0.000001483673
152      -0.000001618921
153      -0.000002462533
154       0.000001535321
155      -0.000003504135
156      -0.000001786266
157       0.000000304496
158      -0.000000149346
159       0.000000219610
160      -0.000000378172
161       0.000002890894
162       0.000006435507
163       0.000005980138
164       0.000001176182
165       0.000015617170
166      -0.000000382067
167       0.000000786106
168       0.000000192393
169       0.000002410105
170      -0.000004945175
171      -0.000001213671
172       0.000003662873
173      -0.000007639592
174      -0.000001838210
175       0.000001476164
176      -0.000004236028
177      -0.000000582846
178      -0.000001251922
179      -0.000000111563
180       0.000001106623
181      -0.000001087461
182      -0.000001658666
183       0.000006020236
184       0.000001367590
185      -0.000005040930
186       0.000006004637
187       0.000008588759
188      -0.000001628443
189       0.000001054385
190      -0.000002231854
191      -0.000001337496
192      -0.000001698632
193      -0.000003891249
194       0.000000720990
195      -0.000000153778
196       0.000000226139
197      -0.000000389662
198       0.000002984483
199       0.000006661707
200       0.000006229085
201       0.000001201437
202       0.000015320753
203       0.000000871217
204      -0.000000109450
205       0.000000167049
206      -0.000005571632
207       0.000000699838
208      -0.000001077816
209      -0.000008884783
210       0.000001111762
211      -0.000001650220
212      -0.000004189307
213       0.000000425101
214      -0.000000093678
215      -0.000001260195
216       0.000000982853
217       0.000000274152
218       0.000001862448
219      -0.000000586466
220       0.000006289828
221      -0.000004908892
222      -0.000000423839
223      -0.000010369484
224       0.000002937998
225      -0.000001483137
226      -0.000002581132
227       0.000000270625
228       0.000001908223
229      -0.000000450420
230      -0.000003695168
231       0.000001467938
 Sym=     1a
 Ene= -2.18140421957988E+02
 Spin= Alpha
 Occup= 1.000000
  1       0.000000696319
  2       0.000000885670
  3       0.000001741111
  4       0.000003390515
  5       0.000005540743
  6       0.000001614545
  7      -0.000010202770
  8      -0.000019207147
  9       0.000007083518
 10      -0.000012287741
 11       0.000021022906
 12      -0.000034276640
 13       0.000053809098
 14      -0.000073672004
 15       0.000059864455
 16      -0.000002899537
 17      -0.000018607701
 18       0.000005282678
 19       0.113858886516
 20       0.167017769964
 21      -0.282444871566
 22       0.157072583308
 23       0.230407238081
 24      -0.389643230075
 25       0.101666504503
 26       0.149132943209
 27      -0.252199734022
 28       0.006106712237
 29       0.008957887155
 30      -0.015148709318
 31       0.001754936137
 32       0.002574210773
 33      -0.004353319544
 34      -0.001216210061
 35      -0.001783916937
 36       0.003016885390
 37       0.000720230640
 38       0.001056244014
 39      -0.001786413894
 40      -0.000432705106
 41      -0.000634155136
 42       0.001072876988
 43       0.000253401300
 44       0.000370885360
 45      -0.000627888731
 46      -0.000138233713
 47      -0.000203057939
 48       0.000343237669
 49       0.000064054718
 50       0.000093945802
 51      -0.000158886398
 52      -0.000020474081
 53      -0.000030002809
 54       0.000050763146
 55       0.000001504679
 56      -0.000001577127
 57      -0.000001893994
 58      -0.000000159025
 59       0.000000868729
 60       0.000000409025
 61      -0.000000480489
 62      -0.000000493734
 63      -0.000000038998
 64       0.000000248411
 65       0.000000568155
 66      -0.000000505046
 67      -0.000000821660
 68      -0.000000094721
 69       0.000000333507
 70      -0.000001448962
 71       0.000001238755
 72       0.000002131247
 73       0.000000280676
 74      -0.000000832028
 75       0.000003801187
 76      -0.000003375293
 77      -0.000005483592
 78      -0.000000713959
 79       0.000002179732
 80      -0.000006953390
 81       0.000006241923
 82       0.000009976548
 83       0.000001307109
 84      -0.000003960643
 85       0.000003569218
 86      -0.000003183828
 87      -0.000005022416
 88      -0.000000449904
 89       0.000002103303
 90       0.000000069010
 91      -0.000000048618
 92      -0.000000158757
 93      -0.000000130035
 94       0.000000018311
 95      -0.000000097096
 96       0.000000075819
 97       0.000000157777
 98       0.000000041412
 99      -0.000000054533
100       0.000000170373
101       0.000000699667
102       0.000001017681
103      -0.000000192551
104       0.000000548236
105       0.000001429249
106      -0.000000377108
107      -0.000001066064
108      -0.000005013165
109      -0.000007207739
110       0.000001215613
111      -0.000003425873
112      -0.000009729939
113       0.000002558114
114       0.000000567111
115       0.000004990251
116       0.000007520005
117      -0.000000524897
118       0.000001590548
119       0.000008228153
120      -0.000002236770
121      -0.000000062421
122       0.000000090757
123      -0.000000160677
124       0.000001203702
125       0.000002560332
126       0.000002028036
127      -0.000002598733
128       0.000001618988
129      -0.000000420346
130      -0.000000638946
131      -0.000000211967
132       0.000002432188
133       0.000003700504
134       0.000001755300
135       0.000003445567
136       0.000005294109
137       0.000004740635
138       0.000001242495
139       0.000002089773
140      -0.000005121111
141      -0.000001213494
142       0.000000893034
143       0.000001313190
144      -0.000000702419
145       0.000001612909
146       0.000002745979
147      -0.000004561916
148      -0.000006796667
149       0.000002802965
150      -0.000006500845
151       0.000005059216
152       0.000002215853
153       0.000003366050
154       0.000001393816
155      -0.000003328773
156      -0.000003870116
157       0.000000733603
158      -0.000000061557
159       0.000000089475
160      -0.000000158309
161       0.000001183262
162       0.000002508277
163       0.000001967231
164      -0.000002557397
165       0.000002004753
166      -0.000000435010
167       0.000000498388
168       0.000000435028
169       0.000002500041
170      -0.000003314881
171      -0.000002242027
172       0.000003489089
173      -0.000006567301
174      -0.000002037198
175       0.000001371969
176       0.000003275938
177      -0.000004286608
178      -0.000000406552
179      -0.000000996746
180       0.000001824231
181      -0.000000158724
182      -0.000001624091
183       0.000002988813
184       0.000003413212
185      -0.000006375269
186       0.000002611813
187       0.000007287438
188      -0.000003945752
189      -0.000000427733
190       0.000002302148
191      -0.000002325233
192      -0.000005283215
193      -0.000001659343
194      -0.000003352719
195      -0.000000061676
196       0.000000089677
197      -0.000000158771
198       0.000001189573
199       0.000002530321
200       0.000002002094
201      -0.000002629080
202       0.000001410966
203       0.000000606321
204      -0.000000260105
205       0.000000431610
206      -0.000003950646
207       0.000001353681
208      -0.000002241469
209      -0.000007493732
210       0.000001291512
211      -0.000002095800
212       0.000002864585
213       0.000002546566
214      -0.000004153426
215      -0.000000441621
216       0.000002017995
217      -0.000000332473
218       0.000001085687
219      -0.000001206146
220       0.000003135502
221      -0.000007180888
222       0.000001137273
223      -0.000006554653
224       0.000004300782
225      -0.000004060827
226       0.000002074341
227       0.000000465119
228       0.000005200098
229      -0.000002630385
230       0.000000389543
231       0.000003939736
 Sym=     1a
 Ene= -2.18138871967973E+02
 Spin= Alpha
 Occup= 1.000000
  1      -0.000000048363
  2      -0.000000061303
  3      -0.000000121024
  4      -0.000000232945
  5      -0.000000385131
  6      -0.000000108958
  7       0.000000622968
  8       0.000001398657
  9      -0.000000415639
 10       0.000000913420
 11      -0.000001640925
 12       0.000002739014
 13      -0.000004668013
 14       0.000007108987
 15      -0.000005618648
 16      -0.000000335052
 17       0.000000202262
 18       0.000000035873
 19      -0.036460431538
 20       0.303557983676
 21       0.164804665566
 22      -0.050297634092
 23       0.418762260812
 24       0.227350228557
 25      -0.032555693640
 26       0.271048433495
 27       0.147154917612
 28      -0.001954168799
 29       0.016270165515
 30       0.008833229708
 31      -0.000564607400
 32       0.004700157363
 33       0.002551772665
 34       0.000394704838
 35      -0.003285129687
 36      -0.001783541943
 37      -0.000240521134
 38       0.002000880670
 39       0.001086348783
 40       0.000155862041
 41      -0.001296020175
 42      -0.000703831663
 43      -0.000103699302
 44       0.000863050248
 45       0.000468949757
 46       0.000056596148
 47      -0.000469310457
 48      -0.000254615260
 49      -0.000021329345
 50       0.000177235744
 51       0.000096239401
 52       0.000006191955
 53      -0.000051870042
 54      -0.000028195870
 55      -0.000002257808
 56      -0.000000210471
 57      -0.000001690094
 58      -0.000001572304
 59      -0.000000709689
 60      -0.000002081705
 61      -0.000002745752
 62      -0.000001296293
 63      -0.000001722818
 64      -0.000004457996
 65       0.000003897835
 66       0.000005088559
 67       0.000002400468
 68       0.000003204570
 69       0.000008304045
 70      -0.000010595648
 71      -0.000013116344
 72      -0.000006579687
 73      -0.000008676199
 74      -0.000021481397
 75       0.000022745214
 76       0.000027987398
 77       0.000014200694
 78       0.000018593198
 79       0.000045823755
 80      -0.000040489774
 81      -0.000050144574
 82      -0.000025468254
 83      -0.000033037919
 84      -0.000081940784
 85       0.000025627509
 86       0.000031509581
 87       0.000014975944
 88       0.000020798571
 89       0.000052258399
 90      -0.000002050455
 91      -0.000002703815
 92      -0.000001044090
 93      -0.000001747191
 94      -0.000004554929
 95      -0.000000278141
 96      -0.000000246765
 97      -0.000000181686
 98      -0.000000213652
 99      -0.000000411985
100       0.000003819205
101      -0.000003463738
102       0.000000064651
103       0.000003829940
104      -0.000001875409
105       0.000002198567
106      -0.000000086945
107      -0.000021574326
108       0.000020951091
109      -0.000000057288
110      -0.000022369689
111       0.000011642478
112      -0.000012966343
113       0.000001255006
114       0.000016074785
115      -0.000015597429
116      -0.000000113368
117       0.000018039241
118      -0.000008318966
119       0.000010323871
120      -0.000003089817
121       0.000000511367
122      -0.000000743744
123       0.000001320137
124      -0.000009982895
125      -0.000021575475
126      -0.000018138346
127       0.000013537737
128      -0.000012169710
129       0.000002278112
130       0.000003147704
131       0.000003443372
132      -0.000014270399
133      -0.000020146382
134      -0.000021833492
135      -0.000025038867
136      -0.000037313663
137      -0.000039500364
138      -0.000004832152
139      -0.000003959013
140      -0.000005437983
141      -0.000002363082
142      -0.000006346948
143      -0.000008933443
144       0.000001807957
145      -0.000006408644
146       0.000011449582
147       0.000032917429
148       0.000047379529
149      -0.000010816286
150       0.000032186770
151      -0.000005794569
152       0.000007904552
153       0.000009614448
154      -0.000003441658
155       0.000015688596
156       0.000006420296
157      -0.000003410137
158      -0.000000553587
159       0.000000804917
160      -0.000001427854
161       0.000010773128
162       0.000023205505
163       0.000019328321
164      -0.000014813481
165       0.000015907828
166      -0.000002593091
167       0.000005005516
168       0.000001175340
169       0.000016175682
170      -0.000031502202
171      -0.000007508787
172       0.000028297263
173      -0.000056300654
174      -0.000013939486
175       0.000006011208
176      -0.000008784837
177      -0.000001344145
178      -0.000006410778
179      -0.000002791948
180       0.000004183749
181      -0.000007151218
182      -0.000009953451
183       0.000032252831
184       0.000013256441
185      -0.000022572471
186       0.000036437933
187       0.000049939577
188      -0.000006645541
189       0.000006031412
190      -0.000010823918
191      -0.000004781339
192      -0.000007106378
193      -0.000018493081
194       0.000001478547
195       0.000000067664
196      -0.000000098405
197       0.000000174628
198      -0.000001319121
199      -0.000002844524
200      -0.000002366556
201       0.000002074664
202      -0.000000826281
203      -0.000000688510
204      -0.000000107045
205      -0.000000246879