[Molden Format]
[Title]
 Molden file created by orca_2mkl for BaseName=/home/smirnovaanastasia2304_2125/_scratch/O2_cc/Eu_O2_cc

[Atoms] AU
Eu   1  63         -0.1362341364        -0.6276234025        -1.6388612102 
O    2   8         -1.8359974405         2.8594920119        -0.6021139894 
O    3   8          3.1471688007        -0.5702588760        -0.6370096722 
[GTO]
  1 0
s   6 1.0 
  1097819.8713740001      2094.1051919023
   487919.9428330000      -553.4936466776
   216853.3079260000      1227.4145046986
    96379.2479670000       287.0671366721
    42835.2213190000       753.5424106054
    19037.8761420000       575.9766746901
s   1 1.0 
     8461.2782850000       628.7631433054
s   1 1.0 
     3760.5681270000       342.2553045042
s   1 1.0 
     1671.3636120000       186.3001906214
s   1 1.0 
      742.8282720000       101.4089791124
s   1 1.0 
      330.1458990000        55.2000565222
s   1 1.0 
      146.7315110000        30.0471049961
s   1 1.0 
       65.2140050000        16.3555723516
s   1 1.0 
       28.9840020000         8.9028458850
s   1 1.0 
       12.8817790000         4.8460955778
s   1 1.0 
        5.7252350000         2.6378802750
s   1 1.0 
        2.5445490000         1.4358801973
s   1 1.0 
        1.1309110000         0.7815943539
s   1 1.0 
        0.5026270000         0.4254460079
s   1 1.0 
        0.2233900000         0.2315836467
s   1 1.0 
        0.0992840000         0.1260577472
s   1 1.0 
        0.0441260000         0.0686168872
s   1 1.0 
        0.0196120000         0.0373509374
p   5 1.0 
    14914.5995620000      2930.9495136540
     5965.8398250000      1201.0763570229
     2386.3359300000      1902.9439950739
      954.5343720000      1878.8141301970
      381.8137490000      1791.4157676492
p   1 1.0 
      152.7255000000       765.2961568742
p   1 1.0 
       61.0902000000       243.4470529600
p   1 1.0 
       24.4360800000        77.4425260895
p   1 1.0 
        9.7744320000        24.6351096643
p   1 1.0 
        3.9097730000         7.8366331475
p   1 1.0 
        1.5639090000         2.4928975832
p   1 1.0 
        0.6255640000         0.7930120249
p   1 1.0 
        0.2502250000         0.2522629443
p   1 1.0 
        0.1000900000         0.0802469342
p   1 1.0 
        0.0400360000         0.0255272151
p   1 1.0 
        0.0160140000         0.0081201653
d   4 1.0 
     1048.0606430000      4504.7143273632
      381.1129610000      4335.1022993005
      138.5865310000      4042.3256851319
       50.3951020000      2169.6801268913
d   1 1.0 
       18.3254920000       462.7191349861
d   1 1.0 
        6.6638150000        78.7925605433
d   1 1.0 
        2.4232060000        13.4169305260
d   1 1.0 
        0.8811660000         2.2846575564
d   1 1.0 
        0.3204240000         0.3890352011
d   1 1.0 
        0.1165180000         0.0662457271
d   1 1.0 
        0.0423700000         0.0112803453
d   1 1.0 
        0.0154070000         0.0019207760
f   4 1.0 
       29.2179750000      1158.8421481478
        9.7393250000       321.6749227643
        3.2464420000        42.1545037835
        1.0821470000         2.5534487342
f   1 1.0 
        0.3607160000         0.5749396280
f   1 1.0 
        0.1202390000         0.0485402635

  2 0
s   6 1.0 
    27032.3826310000         1.4645050749
     4052.3871392000         1.8244031008
      922.3272271000         2.8547160967
      261.2407098900         4.3654874290
       85.3546413500         5.8940772662
       31.0350352400         6.2963020147
s   1 1.0 
       12.2608607300         4.6698272139
s   1 1.0 
        4.9987076000         2.3826123703
s   1 1.0 
        1.1703108200         0.8019291632
s   1 1.0 
        0.4647474100        -0.4011648063
s   1 1.0 
        0.1850453600         0.2010799377
p   4 1.0 
       63.2749548000         3.0898340730
       14.6270493800         3.3923831935
        4.4501223500         2.9482801524
        1.5275799600         1.7113350234
p   1 1.0 
        0.5293511800         0.6436057935
p   1 1.0 
        0.1747842100         0.1610897223
d   1 1.0 
        2.3140000000        12.3767310624
d   1 1.0 
        0.6450000000         1.3234257612
f   1 1.0 
        1.4280000000        12.7097950062

  3 0
s   6 1.0 
    27032.3826310000         1.4645050749
     4052.3871392000         1.8244031008
      922.3272271000         2.8547160967
      261.2407098900         4.3654874290
       85.3546413500         5.8940772662
       31.0350352400         6.2963020147
s   1 1.0 
       12.2608607300         4.6698272139
s   1 1.0 
        4.9987076000         2.3826123703
s   1 1.0 
        1.1703108200         0.8019291632
s   1 1.0 
        0.4647474100        -0.4011648063
s   1 1.0 
        0.1850453600         0.2010799377
p   4 1.0 
       63.2749548000         3.0898340730
       14.6270493800         3.3923831935
        4.4501223500         2.9482801524
        1.5275799600         1.7113350234
p   1 1.0 
        0.5293511800         0.6436057935
p   1 1.0 
        0.1747842100         0.1610897223
d   1 1.0 
        2.3140000000        12.3767310624
d   1 1.0 
        0.6450000000         1.3234257612
f   1 1.0 
        1.4280000000        12.7097950062

[5D]
[7F]
[9G]
[MO]
 Sym=     1a
 Ene= -1.78965054056678E+03
 Spin= Alpha
 Occup= 1.000000
  1       0.085359242712
  2       0.096810839796
  3       0.173193757720
  4       0.299637087841
  5       0.342337429814
  6       0.173492933087
  7       0.010395406810
  8       0.003201321589
  9      -0.002330023188
 10       0.001536340440
 11      -0.001035369789
 12       0.000695287384
 13      -0.000461065174
 14       0.000305745687
 15      -0.000204845489
 16       0.000138417944
 17      -0.000046528043
 18       0.000011880879
 19      -0.000000261731
 20      -0.000000685250
 21      -0.000000380906
 22       0.000000656407
 23       0.000000546413
 24       0.000000436878
 25      -0.000000349817
 26      -0.000000471637
 27      -0.000000312627
 28       0.000000387576
 29       0.000000541502
 30       0.000000354756
 31      -0.000000488688
 32      -0.000000767953
 33      -0.000000484980
 34       0.000000663478
 35       0.000001225828
 36       0.000000739468
 37      -0.000000957589
 38      -0.000002146665
 39      -0.000001234197
 40       0.000000915234
 41       0.000003765923
 42       0.000001937753
 43       0.000000766483
 44      -0.000006038465
 45      -0.000002442695
 46       0.000008406846
 47       0.000013976996
 48       0.000008681828
 49      -0.000001295098
 50      -0.000001978625
 51      -0.000001260252
 52       0.000000280106
 53       0.000000306523
 54       0.000000218870
 55      -0.000000194427
 56       0.000000126472
 57       0.000000116096
 58       0.000000112253
 59      -0.000000075789
 60       0.000000252686
 61      -0.000000110383
 62      -0.000000148229
 63      -0.000000087000
 64       0.000000169380
 65      -0.000000410693
 66       0.000000143810
 67       0.000000216096
 68       0.000000134647
 69      -0.000000336736
 70       0.000000734035
 71      -0.000000209579
 72      -0.000000384343
 73      -0.000000188272
 74       0.000000663869
 75      -0.000001349172
 76       0.000000277197
 77       0.000000739132
 78       0.000000175379
 79      -0.000001337793
 80       0.000001868615
 81       0.000000092293
 82      -0.000001209446
 83       0.000000567331
 84       0.000002344775
 85      -0.000007391296
 86       0.000002168100
 87       0.000003548847
 88       0.000002409345
 89      -0.000006815513
 90       0.000000571907
 91      -0.000000190111
 92      -0.000000417690
 93      -0.000000013410
 94       0.000000407499
 95      -0.000000060495
 96       0.000000033018
 97       0.000000057471
 98      -0.000000002091
 99      -0.000000018091
100      -0.000000139303
101      -0.000000029147
102      -0.000000075806
103       0.000000035719
104      -0.000000083814
105      -0.000000283550
106       0.000000033481
107       0.000000628148
108       0.000000034153
109       0.000000421193
110       0.000000006126
111       0.000000486343
112       0.000001320783
113      -0.000000214191
114      -0.000002553531
115      -0.000000518738
116      -0.000001456365
117       0.000000539050
118      -0.000001746185
119      -0.000005383394
120       0.000000794947
121       0.000000179532
122      -0.000000831030
123       0.000001572467
124      -0.000004797130
125      -0.000009992913
126      -0.000021192881
127      -0.000000309035
128       0.000000704895
129       0.000000219849
130       0.000001429906
131      -0.000003150767
132      -0.000000968245
133      -0.000003069064
134       0.000007529568
135       0.000002417384
136       0.000000089239
137       0.000000036775
138      -0.000000086106
139       0.000000104021
140       0.000000135392
141      -0.000000756060
142      -0.000000342826
143       0.000000724203
144      -0.000000910139
145      -0.000001190533
146       0.000000135132
147      -0.000000047506
148       0.000000120596
149       0.000000107179
150       0.000000127822
151       0.000000250417
152      -0.000000076614
153       0.000000067505
154      -0.000000294066
155       0.000000507847
156      -0.000002285863
157      -0.000009928304
158      -0.000026444620
159      -0.000000378731
160       0.000000056947
161      -0.000000087448
162      -0.000002006581
163      -0.000000252579
164      -0.000000708464
165       0.000007512618
166       0.000001345569
167       0.000002829353
168      -0.000000237237
169       0.000000285213
170       0.000000007774
171       0.000000474822
172      -0.000000010063
173       0.000000488338
174      -0.000000557067
175      -0.000000011339
176      -0.000000949071
177       0.000000062168
178      -0.000000560967
179      -0.000000556961
180       0.000000015913
181       0.000000794549
182       0.000000001443
183      -0.000001064725
184       0.000000017735
 Sym=     1a
 Ene= -2.98675239497592E+02
 Spin= Alpha
 Occup= 1.000000
  1       0.031728442087
  2       0.039607900008
  3       0.071909159210
  4       0.146779942552
  5       0.205772343737
  6       0.087370919773
  7      -0.464202771899
  8      -0.606554474634
  9      -0.101196122018
 10      -0.003999826410
 11       0.003488187064
 12      -0.002486528823
 13       0.001801513166
 14      -0.001242776035
 15       0.000840833790
 16      -0.000571105811
 17       0.000192227687
 18      -0.000049166562
 19      -0.000028227932
 20       0.000004213032
 21      -0.000006531651
 22      -0.000039686460
 23       0.000006533527
 24      -0.000008913114
 25      -0.000030807273
 26       0.000006494555
 27      -0.000006289689
 28      -0.000000884082
 29       0.000001502872
 30       0.000000401754
 31      -0.000000911373
 32       0.000001750611
 33       0.000000503206
 34      -0.000001766044
 35      -0.000004443970
 36      -0.000002490665
 37       0.000003226100
 38       0.000008391416
 39       0.000004670731
 40      -0.000003404401
 41      -0.000015332502
 42      -0.000007793609
 43      -0.000002359608
 44       0.000025199873
 45       0.000010443465
 46      -0.000034860710
 47      -0.000057764898
 48      -0.000035915365
 49       0.000005318426
 50       0.000008154265
 51       0.000005188102
 52      -0.000001148343
 53      -0.000001261261
 54      -0.000000899337
 55       0.000026147921
 56      -0.000018429757
 57      -0.000015957647
 58      -0.000016265229
 59       0.000008152309
 60      -0.000001577448
 61       0.000001321900
 62       0.000000543512
 63       0.000001807487
 64      -0.000000489768
 65       0.000001058280
 66      -0.000000397404
 67      -0.000000479926
 68      -0.000000484986
 69       0.000000882343
 70      -0.000003074775
 71       0.000001114380
 72       0.000001506889
 73       0.000001206059
 74      -0.000002543487
 75       0.000005737100
 76      -0.000001303156
 77      -0.000003093636
 78      -0.000000958653
 79       0.000005560722
 80      -0.000008145990
 81      -0.000000004376
 82       0.000005081317
 83      -0.000001746217
 84      -0.000009833533
 85       0.000030680624
 86      -0.000009065360
 87      -0.000014688825
 88      -0.000010135789
 89       0.000028233169
 90      -0.000002360326
 91       0.000000797314
 92       0.000001730889
 93       0.000000060288
 94      -0.000001661032
 95       0.000000250842
 96      -0.000000141428
 97      -0.000000239611
 98       0.000000005253
 99       0.000000068387
100       0.000000722456
101       0.000000241791
102       0.000000345652
103      -0.000000284476
104       0.000000433091
105       0.000001515589
106      -0.000000213505
107      -0.000002908510
108      -0.000000325728
109      -0.000001824240
110       0.000000237484
111      -0.000002105161
112      -0.000006077306
113       0.000000922054
114       0.000010673864
115       0.000002210829
116       0.000006059026
117      -0.000002319812
118       0.000007271796
119       0.000022505123
120      -0.000003310344
121      -0.000000642310
122       0.000003204566
123      -0.000006340709
124       0.000019836267
125       0.000041188904
126       0.000087520577
127       0.000001309016
128      -0.000003010278
129      -0.000000942063
130      -0.000005920291
131       0.000013086341
132       0.000004027040
133       0.000012603176
134      -0.000031048866
135      -0.000009983886
136      -0.000000406977
137      -0.000000169561
138       0.000000401169
139      -0.000000488318
140      -0.000000614424
141       0.000003212459
142       0.000001457827
143      -0.000003099109
144       0.000003899096
145       0.000005045988
146      -0.000000593064
147       0.000000208491
148      -0.000000529930
149      -0.000000475860
150      -0.000000565133
151      -0.000001100163
152       0.000000343427
153      -0.000000239095
154       0.000001097829
155      -0.000002046261
156       0.000009827308
157       0.000041668415
158       0.000109259695
159       0.000001440358
160      -0.000000252380
161       0.000000316740
162       0.000008959513
163       0.000001075986
164       0.000003140429
165      -0.000030837700
166      -0.000005615441
167      -0.000011654657
168       0.000000976530
169      -0.000001171467
170      -0.000000029962
171      -0.000001954379
172       0.000000045982
173      -0.000001858320
174       0.000002083212
175       0.000000039174
176       0.000003574632
177      -0.000000286077
178       0.000002256989
179       0.000002247185
180      -0.000000067740
181      -0.000003195162
182      -0.000000003615
183       0.000004283373
184      -0.000000083514
 Sym=     1a
 Ene= -2.66511657118039E+02
 Spin= Alpha
 Occup= 1.000000
  1      -0.000002825066
  2      -0.000003501428
  3      -0.000006512631
  4      -0.000012785984
  5      -0.000019346628
  6      -0.000005196412
  7       0.000038881944
  8       0.000054451937
  9       0.000007227939
 10       0.000014748418
 11      -0.000029388462
 12       0.000038969583
 13      -0.000046625100
 14       0.000029967508
 15       0.000071141701
 16      -0.000230017915
 17       0.000045807869
 18      -0.000008773695
 19      -0.340839359918
 20       0.039584144932
 21      -0.083858318180
 22      -0.462733641956
 23       0.053739863514
 24      -0.113848875051
 25      -0.295045355285
 26       0.034265295785
 27      -0.072591606077
 28      -0.015778854757
 29       0.001831161526
 30      -0.003882743801
 31      -0.005343589479
 32       0.000623683937
 33      -0.001313340103
 34       0.003696388018
 35      -0.000435396852
 36       0.000906738177
 37      -0.002241995404
 38       0.000272686924
 39      -0.000546165342
 40       0.001401426587
 41      -0.000187114776
 42       0.000334027194
 43      -0.000862185136
 44       0.000135429428
 45      -0.000196516316
 46       0.000329362193
 47      -0.000089927752
 48       0.000058179430
 49      -0.000155946956
 50       0.000023098131
 51      -0.000036162807
 52       0.000051422844
 53      -0.000006791165
 54       0.000012289559
 55       0.000005630454
 56      -0.000005019098
 57       0.000000909925
 58      -0.000010762061
 59       0.000003179193
 60      -0.000001130972
 61       0.000000291525
 62       0.000000716138
 63       0.000000081377
 64      -0.000000984078
 65      -0.000000713126
 66       0.000004396688
 67      -0.000000853048
 68       0.000006748429
 69       0.000003947128
 70       0.000002545615
 71      -0.000010805002
 72       0.000003090216
 73      -0.000018484278
 74      -0.000007794568
 75      -0.000004599367
 76       0.000021718896
 77      -0.000006733389
 78       0.000037542093
 79       0.000016165222
 80       0.000003825654
 81      -0.000030552524
 82       0.000011131230
 83      -0.000053390092
 84      -0.000025924252
 85       0.000037953831
 86      -0.000027618708
 87      -0.000008870809
 88      -0.000044483039
 89       0.000019830464
 90      -0.000008202574
 91       0.000014726856
 92      -0.000000224004
 93       0.000022742281
 94       0.000005573542
 95       0.000002270268
 96      -0.000004422064
 97       0.000000215170
 98      -0.000006908551
 99      -0.000001888467
100      -0.000000999840
101      -0.000002450100
102       0.000000937365
103       0.000003981867
104       0.000000842661
105      -0.000002317916
106      -0.000000634398
107       0.000005423676
108       0.000014026035
109      -0.000006862081
110      -0.000019992565
111      -0.000007621008
112       0.000007199976
113       0.000002068510
114       0.000009795543
115       0.000000362583
116       0.000006981149
117      -0.000005042538
118       0.000006353534
119       0.000022996606
120       0.000002501400
121      -0.000001104615
122       0.000005637893
123      -0.000011261554
124       0.000034772275
125       0.000055563572
126       0.000064359356
127       0.000002420729
128      -0.000007952361
129      -0.000002797188
130      -0.000011985271
131       0.000031808702
132       0.000010503706
133      -0.000005522656
134      -0.000015938393
135      -0.000008691545
136      -0.000001249800
137      -0.000000837997
138       0.000002317208
139      -0.000003376062
140      -0.000001601755
141       0.000008367980
142       0.000004648170
143      -0.000011882853
144       0.000016439468
145       0.000011805790
146      -0.000001903399
147      -0.000000570992
148      -0.000000465074
149      -0.000002734984
150      -0.000001145384
151      -0.000001357821
152       0.000003886895
153      -0.000002105547
154       0.000010620448
155      -0.000020045319
156       0.000029835170
157       0.000002978571
158       0.000156207201
159      -0.000009379613
160      -0.000000638973
161      -0.000003072088
162      -0.000040998944
163       0.000000215117
164      -0.000012097905
165      -0.000070431778
166      -0.000002986836
167      -0.000022267336
168      -0.000005181904
169       0.000006896244
170       0.000000371296
171       0.000010863818
172       0.000000762698
173       0.000006703075
174      -0.000008803668
175      -0.000000622293
176      -0.000013719910
177      -0.000000927157
178      -0.000012650260
179      -0.000011000217
180      -0.000000355857
181       0.000017515972
182       0.000000833700
183      -0.000023170003
184      -0.000001929318
 Sym=     1a
 Ene= -2.66507498399866E+02
 Spin= Alpha
 Occup= 1.000000
  1       0.000000278181
  2       0.000000393740
  3       0.000000500059
  4       0.000001800704
  5       0.000000699948
  6       0.000003628690
  7      -0.000011911480
  8       0.000002057224
  9      -0.000009865604
 10       0.000032530268
 11      -0.000058940023
 12       0.000093868278
 13      -0.000149977592
 14       0.000212685747
 15      -0.000211534917
 16       0.000096819797
 17       0.000032846157
 18      -0.000010634338
 19      -0.002201630543
 20      -0.322800597981
 21      -0.143420588394
 22      -0.002989796068
 23      -0.438244473313
 24      -0.194712638743
 25      -0.001906189781
 26      -0.279413086940
 27      -0.124143621872
 28      -0.000103344261
 29      -0.014941082126
 30      -0.006638764141
 31      -0.000031198498
 32      -0.005057053546
 33      -0.002245874088
 34       0.000017306509
 35       0.003489018035
 36       0.001548243647
 37      -0.000001349113
 38      -0.002107325088
 39      -0.000932413147
 40      -0.000016581670
 41       0.001312413693
 42       0.000575513103
 43       0.000033802987
 44      -0.000827230558
 45      -0.000355808345
 46      -0.000091672894
 47       0.000521436770
 48       0.000203353710
 49       0.000011405399
 50      -0.000194117795
 51      -0.000082461007
 52      -0.000001929326
 53       0.000059586369
 54       0.000025779632
 55      -0.000001864236
 56      -0.000004113363
 57      -0.000001291791
 58      -0.000001754214
 59      -0.000009085407
 60       0.000000839246
 61       0.000001451070
 62       0.000000198849
 63       0.000000857247
 64       0.000003332638
 65      -0.000004053641
 66      -0.000001060642
 67       0.000003854631
 68      -0.000003939343
 69      -0.000005404705
 70       0.000008524819
 71       0.000002167354
 72      -0.000008063267
 73       0.000008151391
 74       0.000011312571
 75      -0.000018196336
 76      -0.000004403615
 77       0.000017604188
 78      -0.000017687573
 79      -0.000023610982
 80       0.000029815318
 81       0.000007521747
 82      -0.000029059863
 83       0.000029635327
 84       0.000038943005
 85      -0.000026294562
 86      -0.000026094242
 87       0.000034176668
 88      -0.000060578047
 89      -0.000053836399
 90      -0.000002718707
 91       0.000002585814
 92       0.000002314254
 93       0.000001556689
 94       0.000000428063
 95       0.000001288714
 96      -0.000000478628
 97      -0.000001216606
 98       0.000000294399
 99       0.000000678322
100      -0.000001291892
101       0.000000230928
102      -0.000001579848
103      -0.000001184415
104      -0.000002953527
105      -0.000004422655
106       0.000001982283
107       0.000014711746
108      -0.000004995930
109       0.000012782244
110       0.000007205370
111       0.000011437779
112       0.000027436913
113      -0.000003146947
114      -0.000013733311
115       0.000008840436
116      -0.000015254847
117      -0.000017111503
118      -0.000016392259
119      -0.000026334962
120       0.000009263376
121       0.000002174328
122      -0.000011119636
123       0.000022317814
124      -0.000070590842
125      -0.000121710283
126      -0.000186462431
127      -0.000008137344
128       0.000014858131
129       0.000004151304
130       0.000032592998
131      -0.000062352705
132      -0.000017883759
133      -0.000029621625
134       0.000046975507
135       0.000011966531
136       0.000003474438
137       0.000001489237
138      -0.000002702574
139       0.000003213073
140       0.000005759225
141      -0.000019877065
142      -0.000008997180
143       0.000017115566
144      -0.000021234879
145      -0.000032505518
146       0.000001958718
147      -0.000001788781
148       0.000002789663
149       0.000001024214
150       0.000002508834
151       0.000005224468
152       0.000000799933
153      -0.000000445018
154       0.000002235544
155      -0.000004222987
156       0.000007876564
157       0.000009683427
158       0.000053438165
159      -0.000001187344
160      -0.000001263725
161      -0.000000912026
162      -0.000007665652
163       0.000008546360
164       0.000001500063
165      -0.000018957824
166      -0.000004103012
167      -0.000007452688
168      -0.000000742288
169       0.000000945875
170       0.000000255612
171       0.000001226126
172       0.000000184470
173      -0.000000576605
174      -0.000003453915
175      -0.000002825487
176       0.000000300941
177      -0.000007152387
178      -0.000001548082
179      -0.000001970003
180       0.000000258598
181       0.000002116201
182      -0.000000247998
183      -0.000003065902
184       0.000000893113
 Sym=     1a
 Ene= -2.66500961031254E+02
 Spin= Alpha
 Occup= 1.000000
  1       0.000000000000
  2       0.000000000000
  3       0.000000000000
  4       0.000000000000
  5       0.000000000001
  6       0.000000000000
  7      -0.000000000001
  8      -0.000000000002
  9       0.000000000000
 10      -0.000000000001
 11       0.000000000002
 12      -0.000000000003
 13       0.000000000004
 14      -0.000000000005
 15       0.000000000003
 16       0.000000000002
 17      -0.000000000001
 18       0.000000000000
 19       0.092708655203
 20       0.137870279861
 21      -0.311731526766
 22       0.125865184924
 23       0.187178513509
 24      -0.423219883594
 25       0.080241461375
 26       0.119329880388
 27      -0.269810765885
 28       0.004288881714
 29       0.006378145826
 30      -0.014421303404
 31       0.001450664829
 32       0.002157334345
 33      -0.004877839732
 34      -0.000995912313
 35      -0.001481055991
 36       0.003348740901
 37       0.000593741302
 38       0.000882973431
 39      -0.001996446630
 40      -0.000355667344
 41      -0.000528925332
 42       0.001195926353
 43       0.000208011754
 44       0.000309341545
 45      -0.000699436542
 46      -0.000115563463
 47      -0.000171858470
 48       0.000388580504
 49       0.000053596255
 50       0.000079704865
 51      -0.000180216644
 52      -0.000017057943
 53      -0.000025367463
 54       0.000057357090
 55      -0.000003334045
 56      -0.000008257317
 57       0.000002436460
 58       0.000003327026
 59       0.000003433756
 60       0.000001459462
 61       0.000002094284
 62      -0.000000044237
 63      -0.000000552108
 64      -0.000001134750
 65       0.000000982917
 66      -0.000000181760
 67       0.000001040868
 68       0.000000575214
 69      -0.000000378451
 70      -0.000001323825
 71      -0.000000587433
 72      -0.000000842254
 73      -0.000000279706
 74       0.000000711352
 75       0.000003243005
 76       0.000002593558
 77       0.000001286955
 78      -0.000000001498
 79      -0.000002022344
 80      -0.000005403991
 81      -0.000005272857
 82      -0.000001504987
 83       0.000000568193
 84       0.000003600376
 85       0.000004443542
 86       0.000004579583
 87       0.000001073523
 88      -0.000000612258
 89      -0.000003019569
 90       0.000002317374
 91       0.000000702763
 92       0.000001693284
 93       0.000000683263
 94      -0.000001166355
 95      -0.000000729651
 96      -0.000000256872
 97      -0.000000509211
 98      -0.000000193958
 99       0.000000375865
100       0.000001054849
101      -0.000001296839
102      -0.000000984277
103      -0.000000841575
104       0.000000879295
105      -0.000000524054
106      -0.000000307850
107       0.000003223064
108      -0.000003858058
109      -0.000002039081
110      -0.000002985444
111       0.000002681271
112      -0.000001955107
113      -0.000001225967
114      -0.000003641095
115       0.000003618152
116       0.000002771165
117       0.000002685643
118      -0.000003313631
119       0.000002078769
120       0.000000719515
121      -0.000000000000
122       0.000000000000
123      -0.000000000000
124       0.000000000001
125       0.000000000001
126       0.000000000002
127       0.000000557221
128       0.000000828663
129      -0.000001873648
130      -0.000001314138
131      -0.000001954299
132       0.000004418768
133       0.000002637654
134       0.000003922545
135      -0.000008869071
136       0.000001159236
137      -0.000001296502
138       0.000001955248
139       0.000001322051
140      -0.000000184146
141      -0.000003763587
142       0.000004220507
143      -0.000006355507
144      -0.000004298886
145       0.000000595119
146      -0.000001882215
147      -0.000001058935
148       0.000002933866
149      -0.000001157769
150      -0.000002823719
151       0.000000686111
152      -0.000002133294
153       0.000000000000
154      -0.000000000000
155       0.000000000000
156      -0.000000000001
157      -0.000000000000
158      -0.000000000004
159       0.000000752196
160       0.000001118616
161      -0.000002529247
162      -0.000003791161
163      -0.000005637970
164       0.000012747729
165       0.000004637858
166       0.000006897119
167      -0.000015594727
168       0.000000669495
169       0.000001171744
170      -0.000000162203
171      -0.000000378793
172      -0.000000571674
173      -0.000005776695
174      -0.000009999538
175       0.000001325059
176       0.000003202497
177       0.000004905810
178      -0.000000265823
179       0.000000587687
180       0.000000047691
181       0.000000471748
182      -0.000000119724
183       0.000000190641
184       0.000000325125
 Sym=     1a
 Ene= -6.79219499928325E+01
 Spin= Alpha
 Occup= 1.000000
  1       0.014748308812
  2       0.018643211474
  3       0.034181597473
  4       0.070891761196
  5       0.105091525442
  6       0.041168493273
  7      -0.349199547775
  8      -0.695604886777
  9       0.387833867286
 10       0.928069442443
 11       0.059991601177
 12       0.033503056077
 13      -0.022803206334
 14       0.015787932010
 15      -0.010908122954
 16       0.007438760845
 17      -0.002514260188
 18       0.000644562816
 19      -0.000111225199
 20       0.000018570104
 21      -0.000024865216
 22      -0.000171694407
 23       0.000027779112
 24      -0.000038775806
 25      -0.000022218800
 26       0.000007896167
 27      -0.000003115591
 28       0.000439738857
 29      -0.000060416922
 30       0.000104057149
 31       0.000243124540
 32      -0.000084650274
 33       0.000034866505
 34       0.000001771072
 35       0.000065781047
 36       0.000029619863
 37      -0.000024823341
 38      -0.000112344674
 39      -0.000057069394
 40       0.000043269765
 41       0.000202810053
 42       0.000102565689
 43       0.000030780327
 44      -0.000326208635
 45      -0.000135119060
 46       0.000454747820
 47       0.000752675879
 48       0.000468129372
 49      -0.000069072070
 50      -0.000107212530
 51      -0.000067959116
 52       0.000014932366
 53       0.000016705730
 54       0.000011829355