[Molden Format]
[Title]
 Molden file created by orca_2mkl for BaseName=/home/nikolayandreadi_2125/_scratch/F1_cc/Ho_F1_cc

[Atoms] AU
Ho   1  67          0.0297820839        -0.6048559820        -1.5330516645 
F    2   9         -1.4920653944         2.7601850138        -0.5692781081 
[GTO]
  1 0
s   6 1.0 
  1243224.0362390000      2430.7883883751
   552544.0161060001      -654.1975952983
   245575.1182690000      1411.8065153980
   109144.4970090000       307.3508470299
    48508.6653370000       841.1959093739
    21559.4068170000       618.6822587502
s   1 1.0 
     9581.9585850000       690.2410900848
s   1 1.0 
     4258.6482600000       375.7196600467
s   1 1.0 
     1892.7325600000       204.5158785436
s   1 1.0 
      841.2144710000       111.3243437065
s   1 1.0 
      373.8730980000        60.5972973132
s   1 1.0 
      166.1658210000        32.9849906635
s   1 1.0 
       73.8514760000        17.9547547325
s   1 1.0 
       32.8228780000         9.7733305173
s   1 1.0 
       14.5879460000         5.3199273619
s   1 1.0 
        6.4835320000         2.8958018167
s   1 1.0 
        2.8815700000         1.5762749461
s   1 1.0 
        1.2806980000         0.8580155144
s   1 1.0 
        0.5691990000         0.4670444209
s   1 1.0 
        0.2529770000         0.2542265306
s   1 1.0 
        0.1124340000         0.1383831902
s   1 1.0 
        0.0499710000         0.0753266446
s   1 1.0 
        0.0222090000         0.0410021703
p   5 1.0 
    17047.2980980000      3781.2112013816
     6818.9192390000      1471.3063683664
     2727.5676960000      2326.2798005570
     1091.0270780000      2234.2132780884
      436.4108310000      2107.4020968708
p   1 1.0 
      174.5643330000       904.4498260556
p   1 1.0 
       69.8257330000       287.7129878901
p   1 1.0 
       27.9302930000        91.5238862028
p   1 1.0 
       11.1721170000        29.1145064205
p   1 1.0 
        4.4688470000         9.2615664136
p   1 1.0 
        1.7875390000         2.9461814806
p   1 1.0 
        0.7150160000         0.9372054126
p   1 1.0 
        0.2860060000         0.2981322914
p   1 1.0 
        0.1144020000         0.0948379394
p   1 1.0 
        0.0457610000         0.0301688997
p   1 1.0 
        0.0183040000         0.0095967150
d   4 1.0 
     1232.4390880000      5979.7836619149
      448.1596690000      5676.5811931057
      162.9671520000      5311.3346199687
       59.2607830000      2889.9578560975
d   1 1.0 
       21.5493750000       614.4418263873
d   1 1.0 
        7.8361370000       104.6281674848
d   1 1.0 
        2.8495040000        17.8162503928
d   1 1.0 
        1.0361830000         3.0337786695
d   1 1.0 
        0.3767940000         0.5165971977
d   1 1.0 
        0.1370160000         0.0879670103
d   1 1.0 
        0.0498240000         0.0149791654
d   1 1.0 
        0.0181180000         0.0025507214
f   4 1.0 
       35.5734580000      1886.2962682422
       11.8578190000       519.5575878865
        3.9526060000        65.2635019256
        1.3175350000         3.8546197454
f   1 1.0 
        0.4391780000         0.8952439126
f   1 1.0 
        0.1463930000         0.0755824175

  2 0
s   6 1.0 
    35479.1004410000         1.9229128581
     5318.4728983000         2.2734773358
     1210.4810975000         3.4747482552
      342.8551814000         5.2879612972
      112.0194318100         7.1666332516
       40.7147402500         7.7556346254
s   1 1.0 
       16.0396781100         5.7122450312
s   1 1.0 
        6.5038186700         2.9025947842
s   1 1.0 
        1.5440477500         0.9872011154
s   1 1.0 
        0.6122345300        -0.4932856223
s   1 1.0 
        0.2402798000         0.2445952611
p   4 1.0 
       80.2339004800         4.2755032106
       18.5940107400         4.7314752302
        5.6867902700         4.0864798013
        1.9511006300         2.2989954518
p   1 1.0 
        0.6697021100         0.8635593126
p   1 1.0 
        0.2165130000         0.2105208234
d   1 1.0 
        3.1070000000        20.7284714039
d   1 1.0 
        0.8550000000         2.1672588463
f   1 1.0 
        1.9170000000        24.6547062912

[5D]
[7F]
[9G]
[MO]
 Sym=     1a
 Ene= -2.05080063483506E+03
 Spin= Alpha
 Occup= 1.000000
  1      -0.092130693140
  2      -0.101539796291
  3      -0.176449747852
  4      -0.300457436263
  5      -0.336616851016
  6      -0.168806233917
  7      -0.009476585839
  8      -0.003321617120
  9       0.002416800740
 10      -0.001597283942
 11       0.001071877276
 12      -0.000715321457
 13       0.000469257567
 14      -0.000304858833
 15       0.000194622603
 16      -0.000115597396
 17       0.000048589723
 18      -0.000012893309
 19      -0.000000095417
 20       0.000000210979
 21       0.000000060423
 22       0.000000096819
 23      -0.000000214082
 24      -0.000000061316
 25      -0.000000096146
 26       0.000000212594
 27       0.000000060890
 28       0.000000161924
 29      -0.000000358039
 30      -0.000000102546
 31      -0.000000270492
 32       0.000000598099
 33       0.000000171300
 34       0.000000452261
 35      -0.000001000020
 36      -0.000000286413
 37      -0.000000793019
 38       0.000001753488
 39       0.000000502212
 40       0.000001333942
 41      -0.000002949553
 42      -0.000000844774
 43      -0.000002047192
 44       0.000004526660
 45       0.000001296470
 46       0.000004164365
 47      -0.000009208058
 48      -0.000002637258
 49      -0.000000798051
 50       0.000001764614
 51       0.000000505399
 52       0.000000141190
 53      -0.000000312192
 54      -0.000000089414
 55       0.000000007856
 56       0.000000003243
 57      -0.000000007816
 58       0.000000010912
 59       0.000000012513
 60      -0.000000069136
 61      -0.000000029753
 62       0.000000066062
 63      -0.000000091764
 64      -0.000000104388
 65       0.000000157684
 66       0.000000067928
 67      -0.000000150523
 68       0.000000209061
 69       0.000000237770
 70      -0.000000323375
 71      -0.000000139429
 72       0.000000308410
 73      -0.000000428298
 74      -0.000000487024
 75       0.000000619720
 76       0.000000267236
 77      -0.000000590970
 78       0.000000820685
 79       0.000000933189
 80      -0.000000969633
 81      -0.000000418143
 82       0.000000924613
 83      -0.000001284012
 84      -0.000001460021
 85       0.000002494428
 86       0.000001075708
 87      -0.000002378575
 88       0.000003303126
 89       0.000003755896
 90      -0.000000312290
 91      -0.000000134672
 92       0.000000297788
 93      -0.000000413539
 94      -0.000000470225
 95       0.000000035751
 96       0.000000015417
 97      -0.000000034092
 98       0.000000047343
 99       0.000000053833
100       0.000000059784
101      -0.000000029375
102       0.000000064953
103       0.000000053395
104       0.000000060713
105       0.000000120962
106      -0.000000036970
107      -0.000000297674
108       0.000000146262
109      -0.000000323408
110      -0.000000265857
111      -0.000000302299
112      -0.000000602283
113       0.000000184080
114       0.000000914100
115      -0.000000449142
116       0.000000993124
117       0.000000816396
118       0.000000928302
119       0.000001849495
120      -0.000000565274
121      -0.000000160630
122       0.000000735727
123      -0.000001379541
124       0.000003773522
125       0.000006952028
126       0.000012553356
127       0.000000312178
128      -0.000000690273
129      -0.000000197699
130      -0.000001201683
131       0.000002657107
132       0.000000761016
133       0.000002225378
134      -0.000004920656
135      -0.000001409314
136      -0.000000146348
137      -0.000000063112
138       0.000000139550
139      -0.000000193793
140      -0.000000220357
141       0.000000716907
142       0.000000309163
143      -0.000000683608
144       0.000000949325
145       0.000001079452
146      -0.000000114247
147       0.000000056135
148      -0.000000124124
149      -0.000000102036
150      -0.000000116022
151      -0.000000231157
152       0.000000070650
 Sym=     1a
 Ene= -3.47976015548292E+02
 Spin= Alpha
 Occup= 1.000000
  1      -0.034863376545
  2      -0.042445501650
  3      -0.074647582433
  4      -0.149995411645
  5      -0.203686047081
  6      -0.073951239932
  7       0.480970911435
  8       0.593404596426
  9       0.089853975521
 10       0.004517444538
 11      -0.003970389228
 12       0.002797554488
 13      -0.001972381563
 14       0.001323309492
 15      -0.000851499989
 16       0.000508895581
 17      -0.000214445534
 18       0.000056973575
 19       0.000001095192
 20      -0.000002421537
 21      -0.000000693322
 22       0.000001051851
 23      -0.000002325666
 24      -0.000000665785
 25       0.000001168022
 26      -0.000002582565
 27      -0.000000739422
 28       0.000000984806
 29      -0.000002177534
 30      -0.000000623603
 31       0.000000451398
 32      -0.000000998110
 33      -0.000000285871
 34      -0.000001690219
 35       0.000003737335
 36       0.000001070403
 37       0.000003318857
 38      -0.000007338504
 39      -0.000002101804
 40      -0.000005743098
 41       0.000012698877
 42       0.000003637051
 43       0.000009017910
 44      -0.000019939995
 45      -0.000005710961
 46      -0.000018352151
 47       0.000040579451
 48       0.000011622260
 49       0.000003513965
 50      -0.000007769921
 51      -0.000002225361
 52      -0.000000621496
 53       0.000001374225
 54       0.000000393587
 55      -0.000000239117
 56      -0.000000085115
 57       0.000000268164
 58      -0.000000379640
 59      -0.000000444735
 60      -0.000000154119
 61      -0.000000062887
 62       0.000000154995
 63      -0.000000216698
 64      -0.000000249005
 65      -0.000000407704
 66      -0.000000177427
 67       0.000000385126
 68      -0.000000534165
 69      -0.000000606210
 70       0.000001203940
 71       0.000000519589
 72      -0.000001147132
 73       0.000001592861
 74       0.000001810911
 75      -0.000002688955
 76      -0.000001159859
 77       0.000002563470
 78      -0.000003559783
 79      -0.000004047542
 80       0.000004274274
 81       0.000001843392
 82      -0.000004075450
 83       0.000005659519
 84       0.000006435189
 85      -0.000010993295
 86      -0.000004740879
 87       0.000010482527
 88      -0.000014557044
 89      -0.000016552365
 90       0.000001377772
 91       0.000000594188
 92      -0.000001313710
 93       0.000001824335
 94       0.000002074380
 95      -0.000000157452
 96      -0.000000067910
 97       0.000000150116
 98      -0.000000208462
 99      -0.000000237029
100      -0.000000268205
101       0.000000131308
102      -0.000000291780
103      -0.000000237777
104      -0.000000272393
105      -0.000000539130
106       0.000000165258
107       0.000001349174
108      -0.000000662786
109       0.000001465917
110       0.000001204484
111       0.000001370142
112       0.000002728811
113      -0.000000834158
114      -0.000004047306
115       0.000001988594
116      -0.000004397235
117      -0.000003614533
118      -0.000004110189
119      -0.000008188549
120       0.000002502772
121       0.000000595260
122      -0.000002964908
123       0.000005838256
124      -0.000016462822
125      -0.000030355013
126      -0.000055223508
127      -0.000001396732
128       0.000003088390
129       0.000000884539
130       0.000005272459
131      -0.000011658225
132      -0.000003339005
133      -0.000009797195
134       0.000021663118
135       0.000006204483
136       0.000000666421
137       0.000000287390
138      -0.000000635471
139       0.000000882478
140       0.000001003442
141      -0.000003198562
142      -0.000001379363
143       0.000003050002
144      -0.000004235535
145      -0.000004816112
146       0.000000516769
147      -0.000000253913
148       0.000000561445
149       0.000000461531
150       0.000000524798
151       0.000001045572
152      -0.000000319566
 Sym=     1a
 Ene= -3.08973970083620E+02
 Spin= Alpha
 Occup= 1.000000
  1      -0.000000336226
  2      -0.000000445619
  3      -0.000000596526
  4      -0.000001843369
  5      -0.000000935098
  6      -0.000003530613
  7       0.000009814321
  8       0.000002027296
  9       0.000008025237
 10      -0.000026647216
 11       0.000047742721
 12      -0.000076402366
 13       0.000120179673
 14      -0.000164408091
 15       0.000158514942
 16      -0.000081344644
 17      -0.000012672658
 18       0.000005311519
 19      -0.143016014310
 20       0.316220025615
 21       0.090525020638
 22      -0.191256447286
 23       0.422883541683
 24       0.121059825879
 25      -0.120351123327
 26       0.266106110465
 27       0.076178797037
 28      -0.005822382485
 29       0.012873760478
 30       0.003685399752
 31      -0.002262690038
 32       0.005002991864
 33       0.001432219316
 34       0.001551175569
 35      -0.003429775930
 36      -0.000981852686
 37      -0.000938073161
 38       0.002074157315
 39       0.000593779175
 40       0.000579805686
 41      -0.001281999786
 42      -0.000367010342
 43      -0.000357747026
 44       0.000791010638
 45       0.000226456150
 46       0.000207741179
 47      -0.000459334977
 48      -0.000131504386
 49      -0.000085544300
 50       0.000189145525
 51       0.000054147639
 52       0.000026586114
 53      -0.000058784052
 54      -0.000016828217
 55       0.000000409440
 56       0.000000162755
 57      -0.000000421593
 58       0.000000591303
 59       0.000000682460
 60      -0.000000196970
 61      -0.000000084160
 62       0.000000189899
 63      -0.000000263910
 64      -0.000000300688
 65       0.000003116944
 66       0.000001339974
 67      -0.000002981616
 68       0.000004142347
 69       0.000004713211
 70      -0.000007167597
 71      -0.000003090977
 72       0.000006834509
 73      -0.000009491169
 74      -0.000010792141
 75       0.000014902610
 76       0.000006425871
 77      -0.000014211838
 78       0.000019736480
 79       0.000022442365
 80      -0.000022237946
 81      -0.000009589698
 82       0.000021205153
 83      -0.000029447960
 84      -0.000033484642
 85       0.000017891570
 86       0.000007715418
 87      -0.000017060451
 88       0.000023692199
 89       0.000026939867
 90       0.000002799950
 91       0.000001207354
 92      -0.000002669417
 93       0.000003707369
 94       0.000004215560
 95      -0.000001235564
 96      -0.000000532799
 97       0.000001178025
 98      -0.000001636028
 99      -0.000001860285
100       0.000001825087
101      -0.000000888190
102       0.000001989804
103       0.000001598443
104       0.000001853784
105       0.000003629517
106      -0.000001117891
107      -0.000010081178
108       0.000004950934
109      -0.000010955032
110      -0.000008994165
111      -0.000010237899
112      -0.000020378547
113       0.000006230984
114       0.000009196974
115      -0.000004518150
116       0.000009993312
117       0.000008210259
118       0.000009339889
119       0.000018601368
120      -0.000005686216
121      -0.000002191794
122       0.000011121007
123      -0.000021940618
124       0.000059222864
125       0.000081575690
126       0.000094662586
127       0.000007194548
128      -0.000015908316
129      -0.000004556483
130      -0.000025183054
131       0.000055683760
132       0.000015948733
133       0.000009456081
134      -0.000020909140
135      -0.000005989659
136      -0.000004843117
137      -0.000002088737
138       0.000004618585
139      -0.000006413427
140      -0.000007292487
141       0.000019989228
142       0.000008620720
143      -0.000019061986
144       0.000026470240
145       0.000030098466
146      -0.000002573975
147       0.000001264477
148      -0.000002796040
149      -0.000002298814
150      -0.000002613980
151      -0.000005207262
152       0.000001591599
 Sym=     1a
 Ene= -3.08973618236414E+02
 Spin= Alpha
 Occup= 1.000000
  1      -0.000000000014
  2      -0.000000000021
  3      -0.000000000012
  4      -0.000000000113
  5       0.000000000064
  6      -0.000000000405
  7       0.000000000862
  8      -0.000000000356
  9       0.000000001042
 10      -0.000000003114
 11       0.000000005516
 12      -0.000000008784
 13       0.000000013797
 14      -0.000000018864
 15       0.000000018159
 16      -0.000000009266
 17      -0.000000001513
 18       0.000000000629
 19       0.133552768352
 20      -0.034381936806
 21       0.331095662457
 22       0.178602206303
 23      -0.045979502168
 24       0.442779408415
 25       0.112387150027
 26      -0.028933042225
 27       0.278623186538
 28       0.005438977523
 29      -0.001400215504
 30       0.013483971780
 31       0.002108237404
 32      -0.000542745249
 33       0.005226612027
 34      -0.001439254469
 35       0.000370520634
 36      -0.003568113143
 37       0.000858935800
 38      -0.000221121037
 39       0.002129426411
 40      -0.000512231222
 41       0.000131862195
 42      -0.001269902785
 43       0.000297433930
 44      -0.000076562814
 45       0.000737393631
 46      -0.000164283878
 47       0.000042286238
 48      -0.000407293673
 49       0.000078248934
 50      -0.000020144084
 51       0.000193990479
 52      -0.000024907356
 53       0.000006412192
 54      -0.000061748725
 55      -0.000000324263
 56       0.000000220115
 57      -0.000000634257
 58       0.000000051255
 59      -0.000000294205
 60      -0.000000437240
 61       0.000000296805
 62      -0.000000855195
 63       0.000000069200
 64      -0.000000397144
 65      -0.000000220251
 66       0.000000149860
 67      -0.000000431756
 68       0.000000035357
 69      -0.000000199721
 70       0.000000291792
 71      -0.000000198963
 72       0.000000573080
 73      -0.000000047389
 74       0.000000264446
 75      -0.000000638502
 76       0.000000435278
 77      -0.000001253772
 78       0.000000103571
 79      -0.000000578731
 80       0.000000898526
 81      -0.000000612711
 82       0.000001764798
 83      -0.000000145972
 84       0.000000814343
 85      -0.000000948209
 86       0.000000645873
 87      -0.000001860500
 88       0.000000153086
 89      -0.000000859762
 90      -0.000001073405
 91       0.000000728928
 92      -0.000002100323
 93       0.000000170330
 94      -0.000000974479
 95       0.000000325850
 96      -0.000000221327
 97       0.000000637717
 98      -0.000000051772
 99       0.000000295793
100       0.000000110323
101       0.000000077188
102      -0.000000166649
103       0.000000149020
104       0.000000122358
105      -0.000000092298
106      -0.000000064541
107      -0.000000871496
108      -0.000000665720
109       0.000001201405
110      -0.000001082255
111      -0.000000835178
112       0.000000652268
113       0.000000446338
114       0.000001506003
115       0.000001154541
116      -0.000002072270
117       0.000001865484
118       0.000001436207
119      -0.000001125640
120      -0.000000767830
121      -0.000000000252
122       0.000000001281
123      -0.000000002527
124       0.000000006819
125       0.000000009387
126       0.000000010878
127       0.000000688668
128      -0.000000179075
129       0.000001704457
130      -0.000001499156
131       0.000000391968
132      -0.000003707003
133       0.000003512202
134      -0.000000907142
135       0.000008702491
136      -0.000001148532
137       0.000000778942
138      -0.000002244693
139       0.000000180909
140      -0.000001043221
141       0.000003245739
142      -0.000002200476
143       0.000006341366
144      -0.000000510174
145       0.000002948569
146       0.000001547629
147       0.000001189053
148      -0.000002131153
149       0.000001916049
150       0.000001473780
151      -0.000001159374
152      -0.000000787917
 Sym=     1a
 Ene= -3.08973598643769E+02
 Spin= Alpha
 Occup= 1.000000
  1       0.000000000005
  2       0.000000000007
  3       0.000000000007
  4       0.000000000033
  5      -0.000000000001
  6       0.000000000089
  7      -0.000000000211
  8       0.000000000039
  9      -0.000000000222
 10       0.000000000647
 11      -0.000000001134
 12       0.000000001797
 13      -0.000000002813
 14       0.000000003841
 15      -0.000000003696
 16       0.000000001885
 17       0.000000000310
 18      -0.000000000129
 19       0.300587745486
 20       0.165728986935
 21      -0.104037128515
 22       0.401980699485
 23       0.221631969745
 24      -0.139130481263
 25       0.252950163120
 26       0.139464016432
 27      -0.087549173308
 28       0.012241470285
 29       0.006749332097
 30      -0.004236923963
 31       0.004745026855
 32       0.002616169172
 33      -0.001642312388
 34      -0.003239341764
 35      -0.001786009717
 36       0.001121176227
 37       0.001933217522
 38       0.001065877867
 39      -0.000669110563
 40      -0.001152891695
 41      -0.000635644553
 42       0.000399030251
 43       0.000669448240
 44       0.000369097598
 45      -0.000231704558
 46      -0.000369764372
 47      -0.000203867448
 48       0.000127980223
 49       0.000176115432
 50       0.000097101093
 51      -0.000060955737
 52      -0.000056058992
 53      -0.000030908119
 54       0.000019402709
 55       0.000000090939
 56      -0.000000234593
 57       0.000000099970
 58       0.000000531828
 59      -0.000000397658
 60       0.000000141285
 61      -0.000000364489
 62       0.000000154777
 63       0.000000825844
 64      -0.000000617694
 65       0.000000067339
 66      -0.000000173933
 67       0.000000073999
 68       0.000000393977
 69      -0.000000294823
 70      -0.000000091203
 71       0.000000235788
 72      -0.000000100321
 73      -0.000000533887
 74       0.000000399717
 75       0.000000200317
 76      -0.000000517824
 77       0.000000220288
 78       0.000001172524
 79      -0.000000877820
 80      -0.000000282490
 81       0.000000730332
 82      -0.000000310700
 83      -0.000001653638
 84       0.000001238088
 85       0.000000298182
 86      -0.000000770507
 87       0.000000327688
 88       0.000001744904
 89      -0.000001306093
 90       0.000000337478
 91      -0.000000870820
 92       0.000000370032
 93       0.000001973007
 94      -0.000001475816
 95      -0.000000102453
 96       0.000000264394
 97      -0.000000112354
 98      -0.000000599012
 99       0.000000448086
100      -0.000000055988
101       0.000000034538
102       0.000000096404
103       0.000000066401
104      -0.000000135998
105      -0.000000070996
106      -0.000000307730
107       0.000000280189
108      -0.000000162103
109      -0.000000550932
110      -0.000000355260
111       0.000000873240
112       0.000000428806
113       0.000001934584
114      -0.000000475718
115       0.000000274342
116       0.000000941725
117       0.000000605514
118      -0.000001499204
119      -0.000000734130
120      -0.000003319184
121       0.000000000051
122      -0.000000000261
123       0.000000000515
124      -0.000000001389
125      -0.000000001912
126      -0.000000002216
127       0.000001548285
128       0.000000854160
129      -0.000000535826
130      -0.000003368015
131      -0.000001858688
132       0.000001165527
133       0.000007903954
134       0.000004358695
135      -0.000002735559
136       0.000000360933
137      -0.000000930788
138       0.000000395373
139       0.000002109300
140      -0.000001577305
141      -0.000001019887
142       0.000002629678
143      -0.000001116902
144      -0.000005959571
145       0.000004456112
146      -0.000000486428
147       0.000000280271
148       0.000000965509
149       0.000000620330
150      -0.000001538397
151      -0.000000752369
152      -0.000003405958
 Sym=     1a
 Ene= -7.98151794785732E+01
 Spin= Alpha
 Occup= 1.000000
  1       0.016382997630
  2       0.020221684856
  3       0.035872783070
  4       0.073375577720
  5       0.105074941941
  6       0.033183776620
  7      -0.372861228695
  8      -0.692266064091
  9       0.458814296613
 10       0.899890558022
 11       0.035070339864
 12       0.037103653622
 13      -0.024833881222
 14       0.016697682500
 15      -0.010918309309
 16       0.006548851427
 17      -0.002770472185
 18       0.000737557357
 19      -0.000018351067
 20       0.000040576128
 21       0.000011619311
 22      -0.000027200846
 23       0.000060143920
 24       0.000017222720
 25      -0.000002127667
 26       0.000004704427
 27       0.000001347008
 28       0.000062230262
 29      -0.000137597386
 30      -0.000039401621
 31       0.000057471927
 32      -0.000127076926
 33      -0.000036390653
 34      -0.000029400726
 35       0.000065009331
 36       0.000018618651
 37       0.000044654049
 38      -0.000098736885
 39      -0.000028278695
 40      -0.000075486906
 41       0.000166913194
 42       0.000047805083
 43       0.000115811070
 44      -0.000256076215
 45      -0.000073342133
 46      -0.000235598645
 47       0.000520945157
 48       0.000149202673
 49       0.000045576848
 50      -0.000100777487
 51      -0.000028863452
 52      -0.000008104898
 53       0.000017921186
 54       0.000005132765
 55      -0.000008079759
 56      -0.000003129288
 57       0.000008500137
 58      -0.000011947671
 59      -0.000013843444
 60      -0.000009335314
 61      -0.000003396669
 62       0.000010313207
 63      -0.000014576595
 64      -0.000017032173
 65      -0.000009056597
 66      -0.000003671197
 67       0.000009164368
 68      -0.000012821799
 69      -0.000014750140
 70       0.000017540302
 71       0.000007521223
 72      -0.000016822596
 73       0.000023379056
 74       0.000026615017
 75      -0.000033485522
 76      -0.000014418512
 77       0.000031979914
 78      -0.000044419447
 79      -0.000050524176
 80       0.000054249551
 81       0.000023383629
 82      -0.000051755244
 83       0.000071877049
 84       0.000081737638
 85      -0.000141076743
 86      -0.000060833063
 87       0.000134536897
 88      -0.000186833553
 89      -0.000212447451
 90       0.000017822423
 91       0.000007683248
 92      -0.000017000520
 93       0.000023609657
 94       0.000026847790
 95      -0.000002061417
 96      -0.000000888092
 97       0.000001967684
 98      -0.000002732881
 99      -0.000003108131
100      -0.000004505532
101       0.000002382917
102      -0.000004759206
103      -0.000004643989
104      -0.000004570377
105      -0.000010357222
106       0.000002997671
107       0.000016867325
108      -0.000008337840
109       0.000018285285
110       0.000015248101
111       0.000017127845
112       0.000034495251
113      -0.000010493295
114      -0.000051993941
115       0.000025566363
116      -0.000056473445
117      -0.000046506812
118      -0.000052801152
119      -0.000105339849
120       0.000032176729
121       0.000004702995
122      -0.000029892731
123       0.000065385645
124      -0.000201887131
125      -0.000380102907
126      -0.000702650113
127      -0.000017511993
128       0.000038721737
129       0.000011090210
130       0.000067454415
131      -0.000149152191
132      -0.000042718351
133      -0.000125168504
134       0.000276767011
135       0.000079268234
136       0.000008574528
137       0.000003697872
138      -0.000008175955
139       0.000011353871
140       0.000012910071
141      -0.000041452966
142      -0.000017877128
143       0.000039525998
144      -0.000054889387
145      -0.000062412694
146       0.000006709344
147      -0.000003297046
148       0.000007289008
149       0.000005993775
150       0.000006813561
151       0.000013578108
152      -0.000004149549
 Sym=     1a
 Ene= -6.75702914341642E+01
 Spin= Alpha
 Occup= 1.000000
  1       0.000004268619
  2       0.000005191545
  3       0.000009650132
  4       0.000018231209
  5       0.000029702377
  6       0.000003258721
  7      -0.000085214088
  8      -0.000226230526
  9       0.000239168711
 10       0.000061476061
 11       0.000244268364
 12      -0.000422849502
 13       0.000734889312
 14      -0.001034798606
 15       0.001011051254
 16      -0.000515902676
 17      -0.000093352052
 18       0.000037659301
 19       0.076725543794
 20      -0.169646008466
 21      -0.048565256634
 22       0.116538820892
 23      -0.257676190051
 24      -0.073766017147
 25      -0.000963122826
 26       0.002129538271
 27       0.000609633536
 28      -0.289239056686
 29       0.639529535957
 30       0.183080733531
 31      -0.141812782840
 32       0.313558841641
 33       0.089763776135
 34       0.006957734748
 35      -0.015384085131
 36      -0.004404082954
 37      -0.006571607073
 38       0.014530331766
 39       0.004159691368
 40       0.003901520723
 41      -0.008626574734
 42      -0.002469624117
 43      -0.002399336109
 44       0.005305134664
 45       0.001518797836
 46       0.001393664548
 47      -0.003081514641
 48      -0.000882218977
 49      -0.000577097008
 50       0.001276006139
 51       0.000365290503
 52       0.000179606244
 53      -0.000397122970
 54      -0.000113685712
 55       0.000039836759
 56       0.000017441768
 57      -0.000037363471
 58       0.000051788571
 59       0.000058693220
 60       0.000033754765
 61       0.000015124306
 62      -0.000030858689
 63       0.000042633015
 64       0.000048058165
 65       0.000025265677
 66       0.000011271885
 67      -0.000023226032
 68       0.000032102090
 69       0.000036226055
 70      -0.000050582945
 71      -0.000021938002
 72       0.000047946447
 73      -0.000066533315
 74      -0.000075561775
 75       0.000095611579
 76       0.000041299519
 77      -0.000091013133
 78       0.000126363530
 79       0.000143634751
 80      -0.000144686084
 81      -0.000062427217
 82       0.000137888600
 83      -0.000191474291
 84      -0.000217696353
 85       0.000117181601
 86       0.000050549977
 87      -0.000111698087
 88       0.000155110247
 89       0.000176359543
 90       0.000019026483
 91       0.000008196169
 92      -0.000018158536
 93       0.000025222303
 94       0.000028685714
 95      -0.000008341400
 96      -0.000003594188
 97       0.000007959436
 98      -0.000011055068
 99      -0.000012572492
100       0.000009202435
101      -0.000003494972