[Molden Format]
[Title]
 Molden file created by orca_2mkl for BaseName=/home/nikolayandreadi_2125/_scratch/F_cc/Lu_F_cc

[Atoms] AU
Lu   1  71          0.3760517212         0.4462947313        -0.8130187643 
F    2   9         -1.4900188210        -1.9337888782        -2.9323239468 
F    3   9         -1.4340848171         3.4859607917         0.2111391009 
F    4   9          3.8714838203        -0.1268251900         0.2924559062 
[GTO]
  1 0
s   6 1.0 
  1397555.9200170001      2804.5119890306
   621135.9644520000      -768.2142817432
   276060.4286450000      1614.2664970544
   122693.5238420000       325.7081593792
    54530.4550410000       933.9810932816
    24235.7577960000       660.3076369236
s   1 1.0 
    10771.4479090000       753.5562155476
s   1 1.0 
     4787.3101820000       410.1840490352
s   1 1.0 
     2127.6934140000       223.2759157081
s   1 1.0 
      945.6415170000       121.5360144873
s   1 1.0 
      420.2851190000        66.1558268983
s   1 1.0 
      186.7933860000        36.0106709485
s   1 1.0 
       83.0192830000        19.6017265299
s   1 1.0 
       36.8974590000        10.6698284372
s   1 1.0 
       16.3988710000         5.8079190473
s   1 1.0 
        7.2883870000         3.1614306601
s   1 1.0 
        3.2392830000         1.7208648389
s   1 1.0 
        1.4396810000         0.9367200088
s   1 1.0 
        0.6398580000         0.5098856569
s   1 1.0 
        0.2843820000         0.2775470850
s   1 1.0 
        0.1263920000         0.1510774973
s   1 1.0 
        0.0561740000         0.0822359293
s   1 1.0 
        0.0249660000         0.0447632713
p   5 1.0 
    19323.3677850000      4822.9024605813
     7729.3471140000      1785.4667582687
     3091.7388460000      2818.2407679143
     1236.6955380000      2630.9996712709
      494.6782150000      2452.2890501058
p   1 1.0 
      197.8712860000      1057.8365251009
p   1 1.0 
       79.1485140000       336.5065675676
p   1 1.0 
       31.6594060000       107.0455309803
p   1 1.0 
       12.6637620000        34.0520696291
p   1 1.0 
        5.0655050000        10.8322462266
p   1 1.0 
        2.0262020000         3.4458273403
p   1 1.0 
        0.8104810000         1.0961465862
p   1 1.0 
        0.3241920000         0.3486927800
p   1 1.0 
        0.1296770000         0.1109222783
p   1 1.0 
        0.0518710000         0.0352854665
p   1 1.0 
        0.0207480000         0.0112243290
d   4 1.0 
     1430.5278870000      7824.3378881590
      520.1919590000      7307.3728048244
      189.1607120000      6842.4164092826
       68.7857140000      3759.1188941727
d   1 1.0 
       25.0129870000       797.5534701543
d   1 1.0 
        9.0956320000       135.8087103594
d   1 1.0 
        3.3075020000        23.1257212041
d   1 1.0 
        1.2027280000         3.9378853841
d   1 1.0 
        0.4373560000         0.6705504976
d   1 1.0 
        0.1590380000         0.1141817430
d   1 1.0 
        0.0578320000         0.0194430527
d   1 1.0 
        0.0210300000         0.0033108447
f   4 1.0 
       46.7781990000      3161.2713943715
       15.5927330000       939.9878603884
        5.1975780000       122.7894475198
        1.7325260000         7.1830685073
f   1 1.0 
        0.5775090000         1.6577051316
f   1 1.0 
        0.1925030000         0.1399537239

  2 0
s   6 1.0 
    35479.1004410000         1.9229128581
     5318.4728983000         2.2734773358
     1210.4810975000         3.4747482552
      342.8551814000         5.2879612972
      112.0194318100         7.1666332516
       40.7147402500         7.7556346254
s   1 1.0 
       16.0396781100         5.7122450312
s   1 1.0 
        6.5038186700         2.9025947842
s   1 1.0 
        1.5440477500         0.9872011154
s   1 1.0 
        0.6122345300        -0.4932856223
s   1 1.0 
        0.2402798000         0.2445952611
p   4 1.0 
       80.2339004800         4.2755032106
       18.5940107400         4.7314752302
        5.6867902700         4.0864798013
        1.9511006300         2.2989954518
p   1 1.0 
        0.6697021100         0.8635593126
p   1 1.0 
        0.2165130000         0.2105208234
d   1 1.0 
        3.1070000000        20.7284714039
d   1 1.0 
        0.8550000000         2.1672588463
f   1 1.0 
        1.9170000000        24.6547062912

  3 0
s   6 1.0 
    35479.1004410000         1.9229128581
     5318.4728983000         2.2734773358
     1210.4810975000         3.4747482552
      342.8551814000         5.2879612972
      112.0194318100         7.1666332516
       40.7147402500         7.7556346254
s   1 1.0 
       16.0396781100         5.7122450312
s   1 1.0 
        6.5038186700         2.9025947842
s   1 1.0 
        1.5440477500         0.9872011154
s   1 1.0 
        0.6122345300        -0.4932856223
s   1 1.0 
        0.2402798000         0.2445952611
p   4 1.0 
       80.2339004800         4.2755032106
       18.5940107400         4.7314752302
        5.6867902700         4.0864798013
        1.9511006300         2.2989954518
p   1 1.0 
        0.6697021100         0.8635593126
p   1 1.0 
        0.2165130000         0.2105208234
d   1 1.0 
        3.1070000000        20.7284714039
d   1 1.0 
        0.8550000000         2.1672588463
f   1 1.0 
        1.9170000000        24.6547062912

  4 0
s   6 1.0 
    35479.1004410000         1.9229128581
     5318.4728983000         2.2734773358
     1210.4810975000         3.4747482552
      342.8551814000         5.2879612972
      112.0194318100         7.1666332516
       40.7147402500         7.7556346254
s   1 1.0 
       16.0396781100         5.7122450312
s   1 1.0 
        6.5038186700         2.9025947842
s   1 1.0 
        1.5440477500         0.9872011154
s   1 1.0 
        0.6122345300        -0.4932856223
s   1 1.0 
        0.2402798000         0.2445952611
p   4 1.0 
       80.2339004800         4.2755032106
       18.5940107400         4.7314752302
        5.6867902700         4.0864798013
        1.9511006300         2.2989954518
p   1 1.0 
        0.6697021100         0.8635593126
p   1 1.0 
        0.2165130000         0.2105208234
d   1 1.0 
        3.1070000000        20.7284714039
d   1 1.0 
        0.8550000000         2.1672588463
f   1 1.0 
        1.9170000000        24.6547062912

[5D]
[7F]
[9G]
[MO]
 Sym=     1a
 Ene= -2.33435390916902E+03
 Spin= Alpha
 Occup= 2.000000
  1       0.099534848837
  2       0.106648237630
  3       0.179819728107
  4       0.301237499906
  5       0.330325632150
  6       0.163843721777
  7       0.008517095369
  8       0.003468576040
  9      -0.002522572808
 10       0.001674276931
 11      -0.001124867012
 12       0.000755251996
 13      -0.000504134055
 14       0.000340586493
 15      -0.000238245118
 16       0.000158903524
 17      -0.000052292860
 18       0.000012557122
 19       0.000000045537
 20      -0.000000022671
 21       0.000000000169
 22      -0.000000029622
 23       0.000000014285
 24       0.000000000392
 25       0.000000028255
 26      -0.000000013679
 27      -0.000000000381
 28      -0.000000030946
 29       0.000000014786
 30       0.000000000731
 31       0.000000042994
 32      -0.000000020383
 33      -0.000000001265
 34      -0.000000068760
 35       0.000000032537
 36       0.000000002067
 37       0.000000121641
 38      -0.000000057711
 39      -0.000000003225
 40      -0.000000211190
 41       0.000000100572
 42       0.000000005479
 43       0.000000291286
 44      -0.000000136120
 45      -0.000000017812
 46      -0.000000786745
 47       0.000000369938
 48       0.000000021440
 49       0.000000190419
 50      -0.000000092140
 51       0.000000000296
 52      -0.000000036871
 53       0.000000018191
 54      -0.000000001081
 55      -0.000000009704
 56       0.000000009261
 57       0.000000012620
 58       0.000000002257
 59      -0.000000005201
 60       0.000000124900
 61      -0.000000123009
 62      -0.000000159189
 63      -0.000000035742
 64       0.000000064938
 65      -0.000000304605
 66       0.000000299886
 67       0.000000388316
 68       0.000000086985
 69      -0.000000158428
 70       0.000000636207
 71      -0.000000625815
 72      -0.000000811590
 73      -0.000000180645
 74       0.000000331161
 75      -0.000001250183
 76       0.000001227573
 77       0.000001596788
 78       0.000000350991
 79      -0.000000651899
 80       0.000002248034
 81      -0.000002208617
 82      -0.000002868458
 83      -0.000000634724
 84       0.000001172226
 85      -0.000006403519
 86       0.000006300359
 87       0.000008167344
 88       0.000001819638
 89      -0.000003333177
 90       0.000000611695
 91      -0.000000624041
 92      -0.000000761896
 93      -0.000000213169
 94       0.000000306061
 95       0.000000011605
 96      -0.000000009354
 97      -0.000000016080
 98       0.000000000030
 99       0.000000007344
100      -0.000000068290
101      -0.000000064176
102      -0.000000099645
103       0.000000083496
104      -0.000000256849
105      -0.000000328715
106       0.000000090560
107       0.000000391456
108       0.000000370539
109       0.000000567014
110      -0.000000482427
111       0.000001465448
112       0.000001878713
113      -0.000000520117
114      -0.000001350679
115      -0.000001304051
116      -0.000001914459
117       0.000001704098
118      -0.000004993310
119      -0.000006429839
120       0.000001805702
121       0.000000143884
122      -0.000000659509
123       0.000001241764
124      -0.000003384137
125      -0.000006057716
126      -0.000015579090
127      -0.000000319844
128      -0.000000429941
129      -0.000000376092
130       0.000001012228
131       0.000001369818
132       0.000001195322
133      -0.000003981377
134      -0.000004829042
135      -0.000004374772
136       0.000000050795
137      -0.000000186287
138      -0.000000262444
139       0.000000047633
140      -0.000000135814
141      -0.000000143994
142       0.000000874940
143       0.000001196770
144      -0.000000243110
145       0.000000784058
146      -0.000000250557
147       0.000000109307
148       0.000000145115
149      -0.000000102216
150       0.000000406234
151       0.000000195925
152      -0.000000086488
153       0.000000144327
154      -0.000000661981
155       0.000001248167
156      -0.000003426741
157      -0.000006162536
158      -0.000015700509
159      -0.000000315421
160       0.000000543048
161       0.000000185958
162       0.000001023956
163      -0.000001768819
164      -0.000000607280
165      -0.000003829981
166       0.000006284412
167       0.000002086464
168       0.000000155346
169       0.000000024249
170      -0.000000183039
171       0.000000108334
172       0.000000222862
173      -0.000000718893
174      -0.000000246498
175       0.000000811423
176      -0.000000593292
177      -0.000001144778
178       0.000000208575
179      -0.000000120494
180       0.000000171248
181       0.000000160318
182       0.000000227434
183       0.000000371986
184       0.000000025877
185       0.000000142623
186      -0.000000652936
187       0.000001226260
188      -0.000003296955
189      -0.000005845128
190      -0.000015364029
191       0.000000613095
192      -0.000000105274
193       0.000000190915
194      -0.000001860627
195       0.000000321313
196      -0.000000578503
197       0.000007144149
198      -0.000001114151
199       0.000002296412
200       0.000000169696
201      -0.000000196451
202      -0.000000046362
203      -0.000000239003
204       0.000000114347
205      -0.000000717446
206       0.000000868280
207       0.000000071600
208       0.000001165931
209      -0.000000490162
210       0.000000233190
211       0.000000195785
212      -0.000000052033
213      -0.000000301823
214       0.000000065431
215       0.000000333308
216      -0.000000194683
 Sym=     1a
 Ene= -4.02735408344178E+02
 Spin= Alpha
 Occup= 2.000000
  1      -0.038358974942
  2      -0.045559454452
  3      -0.077514731683
  4      -0.153223337978
  5      -0.200794836921
  6      -0.059023969711
  7       0.497418475805
  8       0.578454860476
  9       0.079139278990
 10       0.005095900100
 11      -0.004451613790
 12       0.003133167379
 13      -0.002217534401
 14       0.001540732329
 15      -0.001086310115
 16       0.000728404696
 17      -0.000239773153
 18       0.000057616043
 19       0.000000702292
 20      -0.000000374717
 21       0.000000025642
 22       0.000000995445
 23      -0.000000530175
 24       0.000000036303
 25       0.000000880912
 26      -0.000000465172
 27       0.000000027416
 28       0.000000160029
 29      -0.000000083373
 30       0.000000003339
 31       0.000000115901
 32      -0.000000055110
 33      -0.000000003160
 34      -0.000000276685
 35       0.000000130989
 36       0.000000008099
 37       0.000000531041
 38      -0.000000252315
 39      -0.000000013454
 40      -0.000000959973
 41       0.000000458144
 42       0.000000023553
 43       0.000001349721
 44      -0.000000632220
 45      -0.000000081122
 46      -0.000003608450
 47       0.000001697657
 48       0.000000100827
 49       0.000000876383
 50      -0.000000424282
 51       0.000000001378
 52      -0.000000170084
 53       0.000000083962
 54      -0.000000005041
 55       0.000000482689
 56      -0.000000511953
 57      -0.000000579367
 58      -0.000000207039
 59       0.000000232914
 60       0.000000140630
 61      -0.000000127929
 62      -0.000000188636
 63      -0.000000021336
 64       0.000000078553
 65      -0.000001120414
 66       0.000001093872
 67       0.000001437334
 68       0.000000302613
 69      -0.000000587281
 70       0.000002677579
 71      -0.000002626543
 72      -0.000003422592
 73      -0.000000746780
 74       0.000001397422
 75      -0.000005687995
 76       0.000005580684
 77       0.000007269142
 78       0.000001588699
 79      -0.000002968203
 80       0.000010344240
 81      -0.000010157493
 82      -0.000013204142
 83      -0.000002910722
 84       0.000005396682
 85      -0.000029512325
 86       0.000029035790
 87       0.000037641837
 88       0.000008384727
 89      -0.000015362607
 90       0.000002814915
 91      -0.000002873957
 92      -0.000003503627
 93      -0.000000985523
 94       0.000001407391
 95       0.000000053189
 96      -0.000000042380
 97      -0.000000074219
 98       0.000000001119
 99       0.000000033900
100      -0.000000331760
101      -0.000000311146
102      -0.000000484833
103       0.000000404815
104      -0.000001249047
105      -0.000001597862
106       0.000000439684
107       0.000001831931
108       0.000001732784
109       0.000002655165
110      -0.000002255811
111       0.000006860393
112       0.000008793863
113      -0.000002433413
114      -0.000006246510
115      -0.000006031221
116      -0.000008852254
117       0.000007881661
118      -0.000023089840
119      -0.000029733595
120       0.000008350766
121       0.000000569094
122      -0.000002807788
123       0.000005517330
124      -0.000015415100
125      -0.000027615494
126      -0.000071686511
127      -0.000001490847
128      -0.000002001626
129      -0.000001751610
130       0.000004598295
131       0.000006224115
132       0.000005430866
133      -0.000018318420
134      -0.000022198503
135      -0.000020116828
136       0.000000232993
137      -0.000000879454
138      -0.000001235385
139       0.000000225278
140      -0.000000651441
141      -0.000000665403
142       0.000004049628
143       0.000005538168
144      -0.000001124803
145       0.000003630484
146      -0.000001159986
147       0.000000507224
148       0.000000672838
149      -0.000000473526
150       0.000001884158
151       0.000000910196
152      -0.000000402346
153       0.000000571237
154      -0.000002820136
155       0.000005549244
156      -0.000015616371
157      -0.000028098977
158      -0.000072239573
159      -0.000001470984
160       0.000002530998
161       0.000000866383
162       0.000004655372
163      -0.000008042511
164      -0.000002761324
165      -0.000017615998
166       0.000028892145
167       0.000009589332
168       0.000000732649
169       0.000000123839
170      -0.000000860241
171       0.000000516900
172       0.000001059216
173      -0.000003329691
174      -0.000001143373
175       0.000003757451
176      -0.000002748707
177      -0.000005303756
178       0.000000968164
179      -0.000000558478
180       0.000000795485
181       0.000000742406
182       0.000001057270
183       0.000001728818
184       0.000000119759
185       0.000000563503
186      -0.000002776980
187       0.000005443133
188      -0.000015007101
189      -0.000026638686
190      -0.000070713076
191       0.000002851885
192      -0.000000489238
193       0.000000888369
194      -0.000008441757
195       0.000001458177
196      -0.000002624440
197       0.000032861282
198      -0.000005120681
199       0.000010565402
200       0.000000794527
201      -0.000000922853
202      -0.000000208225
203      -0.000001130425
204       0.000000535590
205      -0.000003315378
206       0.000004012933
207       0.000000329695
208       0.000005389511
209      -0.000002265015
210       0.000001078275
211       0.000000905273
212      -0.000000239529
213      -0.000001395857
214       0.000000304430
215       0.000001543251
216      -0.000000900188
 Sym=     1a
 Ene= -3.55461700390478E+02
 Spin= Alpha
 Occup= 2.000000
  1       0.000000005560
  2       0.000000006901
  3       0.000000010440
  4       0.000000025395
  5       0.000000022487
  6       0.000000024784
  7      -0.000000122015
  8      -0.000000032772
  9      -0.000000072321
 10       0.000000205394
 11      -0.000000365973
 12       0.000000586843
 13      -0.000000919410
 14       0.000001261017
 15      -0.000001260229
 16       0.000000781793
 17       0.000000010941
 18      -0.000000037110
 19       0.121447545821
 20       0.171571926522
 21      -0.298009456445
 22       0.159668411878
 23       0.225567482168
 24      -0.391796280737
 25       0.099101591685
 26       0.140003248677
 27      -0.243176683489
 28       0.004329391309
 29       0.006116241604
 30      -0.010623518245
 31       0.001927552593
 32       0.002723092355
 33      -0.004729841084
 34      -0.001309007234
 35      -0.001849251243
 36       0.003212038199
 37       0.000782946951
 38       0.001106059817
 39      -0.001921168336
 40      -0.000466897683
 41      -0.000659546647
 42       0.001145613916
 43       0.000271468704
 44       0.000383444194
 45      -0.000666048140
 46      -0.000149694573
 47      -0.000211413041
 48       0.000367237845
 49       0.000069846861
 50       0.000098666856
 51      -0.000171381164
 52      -0.000022288052
 53      -0.000031486132
 54       0.000054689689
 55      -0.000000025084
 56      -0.000000248617
 57       0.000000138804
 58       0.000000179921
 59       0.000000090736
 60       0.000000006299
 61      -0.000000014579
 62      -0.000000003701
 63       0.000000004859
 64       0.000000006346
 65      -0.000000022391
 66      -0.000000064446
 67       0.000000059626
 68       0.000000058228
 69       0.000000021602
 70       0.000000042196
 71       0.000000054766
 72      -0.000000087115
 73      -0.000000067313
 74      -0.000000014941
 75      -0.000000080670
 76      -0.000000077044
 77       0.000000157025
 78       0.000000111365
 79       0.000000017508
 80       0.000000113033
 81       0.000000069925
 82      -0.000000206942
 83      -0.000000132387
 84      -0.000000009362
 85      -0.000000086097
 86       0.000000028962
 87       0.000000126249
 88       0.000000051289
 89      -0.000000023306
 90      -0.000000017935
 91      -0.000000205675
 92       0.000000096935
 93       0.000000140404
 94       0.000000079393
 95       0.000000009700
 96       0.000000056842
 97      -0.000000034537
 98      -0.000000042762
 99      -0.000000021226
100      -0.000000091951
101       0.000000307261
102       0.000000403993
103       0.000000121092
104      -0.000000322288
105       0.000000078739
106      -0.000000009004
107       0.000000415502
108      -0.000001373079
109      -0.000001832775
110      -0.000000541042
111       0.000001463684
112      -0.000000342091
113       0.000000050809
114      -0.000000573553
115       0.000002004829
116       0.000002541868
117       0.000000779407
118      -0.000001990606
119       0.000000572393
120      -0.000000029379
121       0.000000005222
122      -0.000000026200
123       0.000000051558
124      -0.000000136982
125      -0.000000166325
126      -0.000000206184
127       0.000000412234
128       0.000000585572
129      -0.000001106464
130      -0.000000504641
131      -0.000000721830
132       0.000001535707
133       0.000002169161
134       0.000003066872
135      -0.000005553334
136      -0.000002097174
137      -0.000000601474
138      -0.000000678529
139      -0.000000334226
140       0.000001146172
141       0.000005687675
142       0.000001652107
143       0.000001868323
144       0.000000900975
145      -0.000003084564
146       0.000001433115
147       0.000002393979
148       0.000003012685
149       0.000000074648
150       0.000000088756
151      -0.000001533399
152       0.000000605350
153       0.000000005400
154      -0.000000027124
155       0.000000053496
156      -0.000000143683
157      -0.000000177459
158      -0.000000216922
159       0.000000427925
160       0.000000687210
161      -0.000001100183
162      -0.000000558118
163      -0.000001052566
164       0.000001528880
165       0.000002203036
166       0.000003317014
167      -0.000005525719
168       0.000001035814
169      -0.000001290422
170       0.000001409717
171       0.000001463337
172      -0.000000081455
173      -0.000002857150
174       0.000003526288
175      -0.000003846185
176      -0.000004028155
177       0.000000192244
178      -0.000001367012
179      -0.000001043159
180       0.000002421147
181      -0.000000180053
182      -0.000002412111
183       0.000001051939
184      -0.000002074160
185       0.000000004962
186      -0.000000024849
187       0.000000048704
188      -0.000000126793
189      -0.000000148009
190      -0.000000185951
191       0.000000457640
192       0.000000572055
193      -0.000000992315
194      -0.000000634023
195      -0.000000667965
196       0.000001156737
197       0.000002275435
198       0.000003032111
199      -0.000005265395
200       0.000001068759
201       0.000001657845
202      -0.000000660033
203      -0.000000992540
204      -0.000000972153
205      -0.000002859071
206      -0.000004393001
207       0.000001753687
208       0.000002671375
209       0.000002577202
210      -0.000001193278
211       0.000002687691
212      -0.000000141426
213       0.000001608386
214      -0.000001597901
215       0.000001804535
216       0.000001289884
 Sym=     1a
 Ene= -3.55461474991204E+02
 Spin= Alpha
 Occup= 2.000000
  1       0.000000061432
  2       0.000000074451
  3       0.000000120929
  4       0.000000261001
  5       0.000000294166
  6       0.000000161036
  7      -0.000001068713
  8      -0.000000695434
  9      -0.000000297914
 10       0.000000917009
 11      -0.000001672885
 12       0.000002789267
 13      -0.000004660289
 14       0.000006656349
 15      -0.000005732417
 16       0.000002949559
 17      -0.000000633555
 18       0.000000084069
 19       0.068597999732
 20      -0.321786537085
 21      -0.157305335433
 22       0.090186094392
 23      -0.423054193418
 24      -0.206810025305
 25       0.055976253079
 26      -0.262579150763
 27      -0.128361807070
 28       0.002443464066
 29      -0.011462085225
 30      -0.005603241015
 31       0.001092604687
 32      -0.005125239822
 33      -0.002505471310
 34      -0.000746434563
 35       0.003501340789
 36       0.001711626915
 37       0.000455025558
 38      -0.002134283058
 39      -0.001043338602
 40      -0.000285607872
 41       0.001339429448
 42       0.000654771903
 43       0.000182872284
 44      -0.000857379399
 45      -0.000419115480
 46      -0.000122621677
 47       0.000574171086
 48       0.000280617773
 49       0.000044288807
 50      -0.000207663204
 51      -0.000101512099
 52      -0.000012910186
 53       0.000060573106
 54       0.000029612760
 55      -0.000000177065
 56      -0.000000271612
 57       0.000000041121
 58      -0.000000167020
 59      -0.000000508553
 60       0.000000716196
 61       0.000001662126
 62       0.000000183704
 63       0.000000977418
 64       0.000002518476
 65      -0.000002234260
 66      -0.000005142356
 67      -0.000000531386
 68      -0.000003021393
 69      -0.000007830856
 70       0.000005099838
 71       0.000011769830
 72       0.000001236173
 73       0.000006915624
 74       0.000017898054
 75      -0.000010336613
 76      -0.000023818038
 77      -0.000002491347
 78      -0.000013998137
 79      -0.000036241273
 80       0.000015911904
 81       0.000036826835
 82       0.000003915971
 83       0.000021629190
 84       0.000055933291
 85      -0.000021484179
 86      -0.000052077736
 87      -0.000006323284
 88      -0.000030442197
 89      -0.000077631335
 90      -0.000000149563
 91      -0.000000347300
 92      -0.000000027454
 93      -0.000000184709
 94      -0.000000543533
 95       0.000000816943
 96       0.000001962947
 97       0.000000227423
 98       0.000001145411
 99       0.000002940568
100      -0.000002702108
101       0.000001838847
102      -0.000000571289
103      -0.000002180073
104       0.000000684831
105      -0.000001281921
106      -0.000001028972
107       0.000013642634
108      -0.000009282957
109       0.000002904430
110       0.000010954280
111      -0.000003437838
112       0.000006515376
113       0.000005229137
114      -0.000017029125
115       0.000012029672
116      -0.000003487656
117      -0.000013818670
118       0.000005145244
119      -0.000007384066
120      -0.000007240803
121      -0.000001812660
122       0.000009077139
123      -0.000017800326
124       0.000047953118
125       0.000071748914
126       0.000115367367
127       0.000007724830
128       0.000008157934
129       0.000007799601
130      -0.000024411683
131      -0.000028137738
132      -0.000026003217
133       0.000027772069
134       0.000032638768
135       0.000029953225
136      -0.000000099117
137       0.000005124678
138       0.000004757277
139       0.000000332489
140       0.000005200740
141       0.000000317440
142      -0.000020079264
143      -0.000020460424
144       0.000000504148
145      -0.000020997702
146       0.000003043444
147      -0.000001953908
148      -0.000001594825
149      -0.000000664258
150      -0.000006154534
151      -0.000002343740
152       0.000003211319
153       0.000002343829
154      -0.000011749019
155       0.000023086234
156      -0.000062727149
157      -0.000094131955
158      -0.000147911381
159      -0.000009206613
160       0.000014518249
161       0.000004667480
162       0.000030529230
163      -0.000049404295
164      -0.000016199691
165      -0.000033609745
166       0.000055039795
167       0.000018197872
168       0.000004380196
169       0.000002623204
170      -0.000003799921
171       0.000003550264
172       0.000008154601
173      -0.000018150789
174      -0.000011004801
175       0.000016617389
176      -0.000015693892
177      -0.000033657870
178       0.000003385927
179      -0.000002232017
180       0.000003429283
181       0.000001621541
182       0.000004223256
183       0.000007181409
184       0.000001373784
185      -0.000000472551
186       0.000002362441
187      -0.000004617766
188       0.000012279194
189       0.000018400478
190       0.000030604247
191      -0.000003258584
192      -0.000000532015
193      -0.000001645329
194       0.000010600473
195      -0.000000353203
196       0.000004151325
197      -0.000013054498
198       0.000000238661
199      -0.000005221015
200      -0.000000159897
201       0.000002302957
202       0.000000315087
203       0.000001978108
204       0.000001585736
205       0.000001431492
206      -0.000007750605
207      -0.000000650628
208      -0.000007559091
209      -0.000003758882
210      -0.000001369752
211       0.000000729237
212      -0.000000623622
213       0.000002738252
214       0.000000742742
215      -0.000002172398
216      -0.000002346816
 Sym=     1a
 Ene= -3.55461435379565E+02
 Spin= Alpha
 Occup= 2.000000
  1       0.000000089217
  2       0.000000108146
  3       0.000000175578
  4       0.000000379265
  5       0.000000426778
  6       0.000000234823
  7      -0.000001555571
  8      -0.000001005909
  9      -0.000000436929
 10       0.000001345310
 11      -0.000002457919
 12       0.000004108933
 13      -0.000006893471
 14       0.000009867424
 15      -0.000008492701
 16       0.000004488778
 17      -0.000000962705
 18       0.000000144938
 19       0.336959967076
 20       0.003670293966
 21       0.139434099708
 22       0.443002560985
 23       0.004825350571
 24       0.183314546675
 25       0.274960616548
 26       0.002994973632
 27       0.113778756082
 28       0.012001908791
 29       0.000130734483
 30       0.004966397701
 31       0.005368204030
 32       0.000058462845
 33       0.002221353385
 34      -0.003668810396
 35      -0.000039945026
 36      -0.001518135695
 37       0.002239029570
 38       0.000024358648
 39       0.000926477202
 40      -0.001408914275
 41      -0.000015299201
 42      -0.000582952488
 43       0.000905929354
 44       0.000009806701
 45       0.000374802573
 46      -0.000614158661
 47      -0.000006526726
 48      -0.000254010350
 49       0.000219485217
 50       0.000002379544
 51       0.000090811169
 52      -0.000063431115
 53      -0.000000694572
 54      -0.000026249215
 55      -0.000000114611
 56       0.000000086719
 57       0.000000043630
 58       0.000000120569
 59      -0.000000075724
 60      -0.000000545820
 61       0.000000500824
 62      -0.000001589795
 63       0.000002318379
 64      -0.000000965008
 65       0.000001606629
 66      -0.000001493667
 67       0.000004857792
 68      -0.000007000736
 69       0.000002907566
 70      -0.000003741398
 71       0.000003469778