[Molden Format]
[Title]
 Molden file created by orca_2mkl for BaseName=/home/nikolayandreadi_2125/_scratch/F_cc/Dy_F_cc

[Atoms] AU
Dy   1  66          0.3054610015         0.2858172983        -0.5825326472 
F    2   9         -1.3597354321        -1.7191840195        -3.3412776897 
F    3   9         -1.5959833242         3.4306390591         0.2826047639 
F    4   9          3.9736858788        -0.1256271037         0.3994578691 
[GTO]
  1 0
s   6 1.0 
  1205955.4869470000      2343.1624566555
   535980.2164210000      -627.7994472729
   238213.4295200000      1364.0035146170
   105872.6353420000       302.4256254711
    47054.5045970000       818.7689739381
    20913.1131540000       608.0650635993
s   1 1.0 
     9294.7169570000       674.6635063570
s   1 1.0 
     4130.9853140000       367.2402974633
s   1 1.0 
     1835.9934730000       199.9002981809
s   1 1.0 
      815.9970990000       108.8119399830
s   1 1.0 
      362.6653770000        59.2297179326
s   1 1.0 
      161.1846120000        32.2405747875
s   1 1.0 
       71.6376050000        17.5495459929
s   1 1.0 
       31.8389360000         9.5527629667
s   1 1.0 
       14.1506380000         5.1998654726
s   1 1.0 
        6.2891720000         2.8304481031
s   1 1.0 
        2.7951880000         1.5407009828
s   1 1.0 
        1.2423060000         0.8386515023
s   1 1.0 
        0.5521360000         0.4565040562
s   1 1.0 
        0.2453940000         0.2484895028
s   1 1.0 
        0.1090640000         0.1352605530
s   1 1.0 
        0.0484730000         0.0736266459
s   1 1.0 
        0.0215430000         0.0400764947
p   5 1.0 
    16500.5200280000      3551.8560429283
     6600.2080110000      1399.7999583687
     2640.0832040000      2214.2919302472
     1056.0332820000      2141.5505502747
      422.4133130000      2025.6781866708
p   1 1.0 
      168.9653250000       868.3345329533
p   1 1.0 
       67.5861300000       276.2244147341
p   1 1.0 
       27.0344520000        87.8692766435
p   1 1.0 
       10.8137810000        27.9519461152
p   1 1.0 
        4.3255120000         8.8917447952
p   1 1.0 
        1.7302050000         2.8285381540
p   1 1.0 
        0.6920820000         0.8997814396
p   1 1.0 
        0.2768330000         0.2862281950
p   1 1.0 
        0.1107330000         0.0910513565
p   1 1.0 
        0.0442930000         0.0289640280
p   1 1.0 
        0.0177170000         0.0092135674
d   4 1.0 
     1185.0486620000      5578.8882618905
      430.9267860000      5315.6245441556
      156.7006500000      4970.6577614337
       56.9820540000      2696.5017083068
d   1 1.0 
       20.7207470000       573.6929957731
d   1 1.0 
        7.5348170000        97.6893734623
d   1 1.0 
        2.7399330000        16.6347004211
d   1 1.0 
        0.9963390000         2.8325824609
d   1 1.0 
        0.3623050000         0.4823365324
d   1 1.0 
        0.1317470000         0.0821327509
d   1 1.0 
        0.0479080000         0.0139856983
d   1 1.0 
        0.0174210000         0.0023814857
f   4 1.0 
       33.8369440000      1676.3832547388
       11.2789810000       461.3524932850
        3.7596600000        58.3481478782
        1.2532200000         3.4646432581
f   1 1.0 
        0.4177400000         0.7999055676
f   1 1.0 
        0.1392470000         0.0675333410

  2 0
s   6 1.0 
    35479.1004410000         1.9229128581
     5318.4728983000         2.2734773358
     1210.4810975000         3.4747482552
      342.8551814000         5.2879612972
      112.0194318100         7.1666332516
       40.7147402500         7.7556346254
s   1 1.0 
       16.0396781100         5.7122450312
s   1 1.0 
        6.5038186700         2.9025947842
s   1 1.0 
        1.5440477500         0.9872011154
s   1 1.0 
        0.6122345300        -0.4932856223
s   1 1.0 
        0.2402798000         0.2445952611
p   4 1.0 
       80.2339004800         4.2755032106
       18.5940107400         4.7314752302
        5.6867902700         4.0864798013
        1.9511006300         2.2989954518
p   1 1.0 
        0.6697021100         0.8635593126
p   1 1.0 
        0.2165130000         0.2105208234
d   1 1.0 
        3.1070000000        20.7284714039
d   1 1.0 
        0.8550000000         2.1672588463
f   1 1.0 
        1.9170000000        24.6547062912

  3 0
s   6 1.0 
    35479.1004410000         1.9229128581
     5318.4728983000         2.2734773358
     1210.4810975000         3.4747482552
      342.8551814000         5.2879612972
      112.0194318100         7.1666332516
       40.7147402500         7.7556346254
s   1 1.0 
       16.0396781100         5.7122450312
s   1 1.0 
        6.5038186700         2.9025947842
s   1 1.0 
        1.5440477500         0.9872011154
s   1 1.0 
        0.6122345300        -0.4932856223
s   1 1.0 
        0.2402798000         0.2445952611
p   4 1.0 
       80.2339004800         4.2755032106
       18.5940107400         4.7314752302
        5.6867902700         4.0864798013
        1.9511006300         2.2989954518
p   1 1.0 
        0.6697021100         0.8635593126
p   1 1.0 
        0.2165130000         0.2105208234
d   1 1.0 
        3.1070000000        20.7284714039
d   1 1.0 
        0.8550000000         2.1672588463
f   1 1.0 
        1.9170000000        24.6547062912

  4 0
s   6 1.0 
    35479.1004410000         1.9229128581
     5318.4728983000         2.2734773358
     1210.4810975000         3.4747482552
      342.8551814000         5.2879612972
      112.0194318100         7.1666332516
       40.7147402500         7.7556346254
s   1 1.0 
       16.0396781100         5.7122450312
s   1 1.0 
        6.5038186700         2.9025947842
s   1 1.0 
        1.5440477500         0.9872011154
s   1 1.0 
        0.6122345300        -0.4932856223
s   1 1.0 
        0.2402798000         0.2445952611
p   4 1.0 
       80.2339004800         4.2755032106
       18.5940107400         4.7314752302
        5.6867902700         4.0864798013
        1.9511006300         2.2989954518
p   1 1.0 
        0.6697021100         0.8635593126
p   1 1.0 
        0.2165130000         0.2105208234
d   1 1.0 
        3.1070000000        20.7284714039
d   1 1.0 
        0.8550000000         2.1672588463
f   1 1.0 
        1.9170000000        24.6547062912

[5D]
[7F]
[9G]
[MO]
 Sym=     1a
 Ene= -1.98379728192814E+03
 Spin= Alpha
 Occup= 1.000000
  1      -0.090385335455
  2      -0.100327704018
  3      -0.175631435247
  4      -0.300263330320
  5      -0.338092822510
  6      -0.169988812989
  7      -0.009706164425
  8      -0.003290300272
  9       0.002395944547
 10      -0.001584084960
 11       0.001066485344
 12      -0.000717099736
 13       0.000478527419
 14      -0.000322218475
 15       0.000221101312
 16      -0.000142527876
 17       0.000049324110
 18      -0.000012518680
 19      -0.000000007130
 20       0.000000134406
 21      -0.000000158558
 22       0.000000001958
 23      -0.000000114169
 24       0.000000131278
 25       0.000000005622
 26       0.000000093825
 27      -0.000000112136
 28      -0.000000017909
 29      -0.000000103111
 30       0.000000127087
 31       0.000000034872
 32       0.000000141994
 33      -0.000000178504
 34      -0.000000061003
 35      -0.000000223687
 36       0.000000282883
 37       0.000000098700
 38       0.000000393429
 39      -0.000000490837
 40      -0.000000148471
 41      -0.000000682733
 42       0.000000831615
 43       0.000000335529
 44       0.000001001760
 45      -0.000001253484
 46      -0.000000634404
 47      -0.000001997870
 48       0.000002491082
 49       0.000000025257
 50       0.000000391131
 51      -0.000000471712
 52       0.000000005441
 53      -0.000000079251
 54       0.000000090945
 55       0.000000120533
 56      -0.000000134992
 57      -0.000000208780
 58      -0.000000019656
 59       0.000000075958
 60      -0.000000172131
 61       0.000000221337
 62       0.000000303602
 63       0.000000067348
 64      -0.000000135935
 65       0.000000270012
 66      -0.000000374132
 67      -0.000000482707
 68      -0.000000141457
 69       0.000000239965
 70      -0.000000488806
 71       0.000000697874
 72       0.000000880383
 73       0.000000283099
 74      -0.000000456975
 75       0.000000919878
 76      -0.000001321163
 77      -0.000001663609
 78      -0.000000540927
 79       0.000000877235
 80      -0.000001478248
 81       0.000002115619
 82       0.000002680099
 83       0.000000871222
 84      -0.000001412389
 85       0.000003774677
 86      -0.000005428801
 87      -0.000006831815
 88      -0.000002309040
 89       0.000003569002
 90      -0.000000315276
 91       0.000000510509
 92       0.000000494639
 93       0.000000269117
 94      -0.000000286172
 95       0.000000033654
 96      -0.000000061301
 97      -0.000000042314
 98      -0.000000037427
 99       0.000000029831
100       0.000000109700
101       0.000000122469
102       0.000000178013
103      -0.000000078840
104       0.000000235050
105       0.000000335781
106      -0.000000065785
107      -0.000000579380
108      -0.000000633992
109      -0.000000931667
110       0.000000417754
111      -0.000001247853
112      -0.000001766823
113       0.000000347471
114       0.000001904873
115       0.000002089756
116       0.000002881227
117      -0.000001509079
118       0.000004067866
119       0.000005707839
120      -0.000001193811
121      -0.000000170071
122       0.000000780253
123      -0.000001467198
124       0.000004100359
125       0.000007784100
126       0.000014749059
127       0.000000335079
128       0.000000368350
129       0.000000532803
130      -0.000001378657
131      -0.000001538779
132      -0.000002216217
133       0.000002507499
134       0.000002328713
135       0.000003828897
136       0.000000064170
137       0.000000203315
138       0.000000269790
139      -0.000000003505
140       0.000000096462
141      -0.000000435744
142      -0.000001046164
143      -0.000001335708
144       0.000000084241
145      -0.000000625543
146       0.000000039313
147      -0.000000119527
148      -0.000000142848
149       0.000000017086
150      -0.000000164479
151      -0.000000055902
152       0.000000037813
153      -0.000000167303
154       0.000000768499
155      -0.000001448710
156       0.000004101592
157       0.000007860766
158       0.000014812337
159       0.000000369567
160      -0.000000592868
161      -0.000000148118
162      -0.000001579767
163       0.000002558080
164       0.000000646649
165       0.000002696615
166      -0.000004205142
167      -0.000000803059
168      -0.000000156536
169      -0.000000020407
170       0.000000151136
171      -0.000000097026
172      -0.000000230682
173       0.000000818153
174       0.000000246844
175      -0.000000726638
176       0.000000623874
177       0.000001308617
178      -0.000000070556
179       0.000000050311
180      -0.000000095172
181      -0.000000046272
182      -0.000000076393
183      -0.000000165176
184      -0.000000019720
185      -0.000000175265
186       0.000000802638
187      -0.000001503853
188       0.000004128465
189       0.000007746483
190       0.000014994649
191      -0.000000722346
192       0.000000074676
193      -0.000000193373
194       0.000002856911
195      -0.000000293093
196       0.000000758263
197      -0.000005075683
198       0.000000371276
199      -0.000001271955
200      -0.000000171601
201       0.000000190813
202       0.000000055377
203       0.000000287129
204      -0.000000095844
205       0.000000806983
206      -0.000000884025
207      -0.000000105668
208      -0.000001452079
209       0.000000416300
210      -0.000000108694
211      -0.000000121312
212       0.000000009504
213       0.000000139899
214      -0.000000017572
215      -0.000000203570
216       0.000000073693
 Sym=     1a
 Ene= -3.35521237118830E+02
 Spin= Alpha
 Occup= 1.000000
  1      -0.034048014782
  2      -0.041711709513
  3      -0.073951687559
  4      -0.149188281442
  5      -0.204272603779
  6      -0.077414500241
  7       0.476792075603
  8       0.596811739842
  9       0.092682158462
 10       0.004383883138
 11      -0.003869870987
 12       0.002749269910
 13      -0.001977039021
 14       0.001378099695
 15      -0.000953610034
 16       0.000617751119
 17      -0.000214163334
 18       0.000054433077
 19       0.000000109285
 20      -0.000000376172
 21       0.000000715019
 22       0.000000202206
 23      -0.000000643103
 24       0.000001120593
 25       0.000000206260
 26      -0.000000795771
 27       0.000001203459
 28      -0.000000039004
 29      -0.000000295284
 30       0.000000405362
 31      -0.000000089514
 32      -0.000000296520
 33       0.000000386853
 34       0.000000233056
 35       0.000000834933
 36      -0.000001055874
 37      -0.000000400930
 38      -0.000001608228
 39       0.000001999815
 40       0.000000615689
 41       0.000002917394
 42      -0.000003536142
 43      -0.000001421559
 44      -0.000004403889
 45       0.000005476551
 46       0.000002753054
 47       0.000008673745
 48      -0.000010803942
 49      -0.000000104317
 50      -0.000001694591
 51       0.000002041328
 52      -0.000000025617
 53       0.000000343355
 54      -0.000000393158
 55      -0.000016110640
 56       0.000017703586
 57       0.000027814074
 58       0.000002142871
 59      -0.000009844284
 60      -0.000001815446
 61       0.000001939709
 62       0.000003054244
 63       0.000000230380
 64      -0.000001037129
 65      -0.000000395966
 66       0.000000704251
 67       0.000000790958
 68       0.000000385299
 69      -0.000000526015
 70       0.000001661979
 71      -0.000002461684
 72      -0.000003044125
 73      -0.000001059975
 74       0.000001659512
 75      -0.000003891835
 76       0.000005620240
 77       0.000007059624
 78       0.000002318953
 79      -0.000003757364
 80       0.000006422530
 81      -0.000009203615
 82      -0.000011661694
 83      -0.000003791118
 84       0.000006170680
 85      -0.000016371894
 86       0.000023550234
 87       0.000029643345
 88       0.000010018515
 89      -0.000015495316
 90       0.000001349121
 91      -0.000002195326
 92      -0.000002110032
 93      -0.000001166308
 94       0.000001228099
 95      -0.000000140055
 96       0.000000259784
 97       0.000000172382
 98       0.000000161857
 99      -0.000000125360
100      -0.000000525233
101      -0.000000587400
102      -0.000000852510
103       0.000000376213
104      -0.000001121933
105      -0.000001607374
106       0.000000314212
107       0.000002609364
108       0.000002853234
109       0.000004200824
110      -0.000001875288
111       0.000005619510
112       0.000007958701
113      -0.000001561949
114      -0.000008317725
115      -0.000009122055
116      -0.000012582420
117       0.000006586188
118      -0.000017758707
119      -0.000024920276
120       0.000005211667
121       0.000000619767
122      -0.000003100935
123       0.000006132776
124      -0.000017676245
125      -0.000033529973
126      -0.000063897384
127      -0.000001491516
128      -0.000001641065
129      -0.000002372949
130       0.000005989102
131       0.000006674824
132       0.000009617309
133      -0.000010859499
134      -0.000010047678
135      -0.000016554361
136      -0.000000301904
137      -0.000000924694
138      -0.000001218567
139       0.000000021172
140      -0.000000451474
141       0.000001939030
142       0.000004637306
143       0.000005907478
144      -0.000000375984
145       0.000002784754
146      -0.000000178304
147       0.000000546687
148       0.000000651713
149      -0.000000081016
150       0.000000756568
151       0.000000257675
152      -0.000000173129
153       0.000000610840
154      -0.000003059041
155       0.000006065235
156      -0.000017702757
157      -0.000033881828
158      -0.000064174944
159      -0.000001648959
160       0.000002647029
161       0.000000661765
162       0.000006867604
163      -0.000011113171
164      -0.000002807049
165      -0.000011666448
166       0.000018170850
167       0.000003452384
168       0.000000712535
169       0.000000106544
170      -0.000000679971
171       0.000000452509
172       0.000001060694
173      -0.000003628825
174      -0.000001107941
175       0.000003213053
176      -0.000002775875
177      -0.000005815683
178       0.000000327687
179      -0.000000234277
180       0.000000439131
181       0.000000212468
182       0.000000358589
183       0.000000768541
184       0.000000089166
185       0.000000637373
186      -0.000003184574
187       0.000006275482
188      -0.000017777621
189      -0.000033354227
190      -0.000064976873
191       0.000003209662
192      -0.000000331613
193       0.000000858769
194      -0.000012385676
195       0.000001269729
196      -0.000003289085
197       0.000021955158
198      -0.000001597823
199       0.000005501296
200       0.000000771543
201      -0.000000857086
202      -0.000000233002
203      -0.000001301873
204       0.000000426806
205      -0.000003563343
206       0.000003904511
207       0.000000449591
208       0.000006424143
209      -0.000001833682
210       0.000000490704
211       0.000000547430
212      -0.000000043186
213      -0.000000632507
214       0.000000084221
215       0.000000921400
216      -0.000000332168
 Sym=     1a
 Ene= -2.98352340956421E+02
 Spin= Alpha
 Occup= 1.000000
  1       0.000000010493
  2       0.000000012043
  3       0.000000025170
  4       0.000000037025
  5       0.000000083840
  6      -0.000000029805
  7      -0.000000006299
  8      -0.000000318965
  9       0.000000109126
 10      -0.000000535898
 11       0.000001028955
 12      -0.000001704206
 13       0.000002962563
 14      -0.000004517699
 15       0.000003642267
 16       0.000000051951
 17      -0.000000509209
 18       0.000000106061
 19       0.064377076235
 20       0.284037730360
 21       0.206866236432
 22       0.086432913770
 23       0.381350595290
 24       0.277739513959
 25       0.054581488101
 26       0.240818955104
 27       0.175389770355
 28       0.002714958841
 29       0.011979353785
 30       0.008723785342
 31       0.001015865042
 32       0.004480561667
 33       0.003264826101
 34      -0.000699193393
 35      -0.003082034966
 36      -0.002247599123
 37       0.000425336185
 38       0.001871865172
 39       0.001368646187
 40      -0.000267207452
 41      -0.001172898342
 42      -0.000863377640
 43       0.000168484881
 44       0.000736280441
 45       0.000547389796
 46      -0.000096578514
 47      -0.000401330004
 48      -0.000300258166
 49       0.000037842277
 50       0.000161347070
 51       0.000117890558
 52      -0.000011729040
 53      -0.000050753725
 54      -0.000036931967
 55       0.000000276263
 56       0.000000009741
 57       0.000000085939
 58       0.000000196458
 59      -0.000000137692
 60      -0.000001235774
 61      -0.000001138176
 62      -0.000000747560
 63       0.000000019998
 64      -0.000001966121
 65       0.000004898226
 66       0.000003942184
 67       0.000002749444
 68       0.000000372549
 69       0.000006513329
 70      -0.000011446846
 71      -0.000009418068
 72      -0.000006547985
 73      -0.000000624700
 74      -0.000015742457
 75       0.000024030317
 76       0.000019847701
 77       0.000013696715
 78       0.000001350057
 79       0.000033227155
 80      -0.000036624591
 81      -0.000030381714
 82      -0.000020753019
 83      -0.000002209910
 84      -0.000050940112
 85       0.000016952741
 86       0.000013324295
 87       0.000010777968
 88      -0.000001011665
 89       0.000022771778
 90       0.000005443735
 91       0.000004479293
 92       0.000002817813
 93       0.000001032757
 94       0.000007189127
 95      -0.000001939386
 96      -0.000001571561
 97      -0.000001045296
 98      -0.000000273608
 99      -0.000002550563
100      -0.000000582079
101      -0.000001301305
102      -0.000000783815
103      -0.000000416266
104      -0.000000379491
105       0.000001521756
106       0.000000169365
107      -0.000013880001
108       0.000015398006
109       0.000006939121
110      -0.000004805200
111       0.000009700930
112      -0.000015156742
113      -0.000003422515
114       0.000009615419
115      -0.000010372666
116      -0.000004256318
117       0.000001467111
118      -0.000007434735
119       0.000009786672
120       0.000003933524
121       0.000001620110
122      -0.000008319180
123       0.000016698611
124      -0.000047857007
125      -0.000064482875
126      -0.000053321795
127      -0.000006767680
128      -0.000007482449
129      -0.000010986994
130       0.000025736582
131       0.000029576698
132       0.000042243661
133      -0.000000585886
134      -0.000000434863
135      -0.000002524068
136      -0.000003039979
137      -0.000005573371
138      -0.000005666291
139       0.000000106761
140      -0.000003740918
141       0.000013455949
142       0.000024956806
143       0.000026752037
144      -0.000001314087
145       0.000017164592
146      -0.000000306681
147       0.000002624299
148       0.000002399340
149       0.000000334691
150       0.000003065913
151       0.000000606011
152      -0.000000958630
153      -0.000001209808
154       0.000006225072
155      -0.000012547739
156       0.000036558385
157       0.000049120325
158       0.000037073648
159       0.000006518454
160      -0.000009171712
161      -0.000002060198
162      -0.000024573563
163       0.000036848858
164       0.000009056629
165       0.000001162814
166       0.000001567143
167       0.000001373377
168      -0.000003304957
169      -0.000001240011
170       0.000001278360
171      -0.000001487746
172      -0.000005893089
173       0.000015086810
174       0.000006072713
175      -0.000007602755
176       0.000008846519
177       0.000026583456
178      -0.000000452733
179       0.000001507901
180      -0.000001735747
181       0.000000366687
182      -0.000000711612
183      -0.000002635397
184      -0.000001933418
185      -0.000000428522
186       0.000002195973
187      -0.000004389581
188       0.000012392187
189       0.000017005702
190       0.000016028309
191      -0.000003770541
192       0.000001724004
193      -0.000000182652
194       0.000014123956
195      -0.000004560462
196       0.000001899638
197      -0.000002739329
198       0.000006664323
199       0.000003384784
200      -0.000001612138
201      -0.000000224712
202      -0.000000600251
203       0.000001747639
204      -0.000002476360
205       0.000006265998
206      -0.000000799030
207       0.000001970097
208      -0.000008013612
209       0.000008091880
210       0.000000331323
211      -0.000001689819
212       0.000000722070
213      -0.000000890775
214      -0.000000990543
215      -0.000000443632
216       0.000003037947
 Sym=     1a
 Ene= -2.98351365999333E+02
 Spin= Alpha
 Occup= 1.000000
  1       0.000000061152
  2       0.000000077769
  3       0.000000127327
  4       0.000000298849
  5       0.000000314710
  6       0.000000280139
  7      -0.000001489885
  8      -0.000000626377
  9      -0.000000050385
 10       0.000001227605
 11      -0.000002624000
 12       0.000004358644
 13      -0.000007849697
 14       0.000011898166
 15      -0.000006442731
 16      -0.000005944071
 17       0.000001226054
 18      -0.000000147041
 19       0.329182544639
 20      -0.122323864083
 21       0.065515014412
 22       0.441962126727
 23      -0.164232718645
 24       0.087960683458
 25       0.279091764667
 26      -0.103710232837
 27       0.055545741906
 28       0.013879514290
 29      -0.005157739336
 30       0.002762004155
 31       0.005195522246
 32      -0.001930352515
 33       0.001034680895
 34      -0.003576524822
 35       0.001328464230
 36      -0.000712995062
 37       0.002177455631
 38      -0.000808203178
 39       0.000435494608
 40      -0.001372324391
 41       0.000508787517
 42      -0.000276640734
 43       0.000868887543
 44      -0.000321413481
 45       0.000177212070
 46      -0.000482656338
 47       0.000173878418
 48      -0.000100728312
 49       0.000189495987
 50      -0.000069248177
 51       0.000038387421
 52      -0.000059147648
 53       0.000021772628
 54      -0.000011865333
 55       0.000000007216
 56       0.000000351077
 57      -0.000000326084
 58       0.000000148912
 59      -0.000000170454
 60      -0.000000378982
 61       0.000000886145
 62      -0.000001020761
 63       0.000002046771
 64       0.000000303886
 65       0.000001256389
 66      -0.000002273917
 67       0.000003295510
 68      -0.000007194582
 69      -0.000001611743
 70      -0.000003056430
 71       0.000005830491
 72      -0.000008213401
 73       0.000017410607
 74       0.000003600619
 75       0.000006277758
 76      -0.000012277846
 77       0.000017374430
 78      -0.000036500403
 79      -0.000007654872
 80      -0.000009288907
 81       0.000018764282
 82      -0.000026471130
 83       0.000055336281
 84       0.000011813008
 85       0.000007385649
 86      -0.000010056642
 87       0.000012270600
 88      -0.000028854618
 89      -0.000002711496
 90       0.000000759159
 91      -0.000002228709
 92       0.000003040659
 93      -0.000006994714
 94      -0.000002266781
 95      -0.000000378479
 96       0.000000843320
 97      -0.000001163699
 98       0.000002656120
 99       0.000000725595
100       0.000000280587
101       0.000001051597
102      -0.000001132027
103      -0.000000800796
104      -0.000000046605
105       0.000000888856
106      -0.000000472059
107      -0.000004670454
108      -0.000011854533
109       0.000014844295
110       0.000016703901
111       0.000011780137
112      -0.000001280851
113       0.000007214584
114       0.000004532546
115       0.000008143648
116      -0.000008860308
117      -0.000012225770
118      -0.000006820280
119       0.000003512516
120      -0.000005454188
121       0.000000567743
122      -0.000002927123
123       0.000005919007
124      -0.000017437122
125      -0.000024237777
126      -0.000020197322
127      -0.000001192079
128      -0.000003701055
129      -0.000004103670
130       0.000006720658
131       0.000013475737
132       0.000016163289
133       0.000003683892
134      -0.000004757007
135      -0.000002584483
136      -0.000001264302
137      -0.000000401346
138      -0.000003106560
139       0.000001887622
140      -0.000000894705
141       0.000005472071
142       0.000004233166
143       0.000013264414
144      -0.000006271817
145       0.000004935047
146       0.000000084763
147      -0.000000236458
148       0.000001935460
149      -0.000002701930
150       0.000000425202
151       0.000000937576
152       0.000001217965
153       0.000001133576
154      -0.000005847915
155       0.000011843525
156      -0.000035085108
157      -0.000047685025
158      -0.000035057309
159      -0.000004625117
160       0.000009570503
161       0.000003077718
162       0.000020148493
163      -0.000037995692
164      -0.000011564277
165       0.000003255016
166       0.000001785489
167       0.000002057577
168       0.000002287574
169       0.000001510370
170      -0.000002924302
171       0.000003812443
172       0.000003790995
173      -0.000011880546
174      -0.000006955195
175       0.000012932634
176      -0.000016239670
177      -0.000019997768
178       0.000001488625
179       0.000000004674
180       0.000000763036
181       0.000001712620
182       0.000001504911
183       0.000002038039
184      -0.000001900647
185      -0.000001755609
186       0.000008993528
187      -0.000017965885
188       0.000050531604
189       0.000068471979
190       0.000063272289
191      -0.000015125382
192       0.000001361701
193      -0.000004131734
194       0.000056743992
195      -0.000005638937
196       0.000015364106
197      -0.000007399877
198      -0.000000588088
199      -0.000002023615
200      -0.000003889865
201       0.000004419589
202      -0.000000470992
203       0.000008005176
204      -0.000001187879
205       0.000017411913
206      -0.000019402000
207       0.000002099769
208      -0.000035337943
209       0.000006109603
210      -0.000001926976
211      -0.000001996075
212       0.000000117508
213       0.000002654498
214      -0.000000197971
215      -0.000003774060
216       0.000000517918
 Sym=     1a
 Ene= -2.98341725294500E+02
 Spin= Alpha
 Occup= 1.000000
  1       0.000000123536
  2       0.000000162824
  3       0.000000236967
  4       0.000000666947
  5       0.000000476537
  6       0.000000953947
  7      -0.000003655300
  8      -0.000000385734
  9      -0.000002457403
 10       0.000007983906
 11      -0.000014434866
 12       0.000023193146
 13      -0.000037044559
 14       0.000051432874
 15      -0.000047390863
 16       0.000019398540
 17       0.000004242605
 18      -0.000001461146
 19      -0.122929847864
 20      -0.178821154593
 21       0.283786697585
 22      -0.165048274383
 23      -0.240089163518
 24       0.381017941277
 25      -0.104214179308
 26      -0.151596194101
 27       0.240581107816
 28      -0.005177183237
 29      -0.007531013511
 30       0.011950566795
 31      -0.001934501378
 32      -0.002814054802
 33       0.004467844368
 34       0.001323071595
 35       0.001924621924
 36      -0.003057952027
 37      -0.000789189317
 38      -0.001148044107
 39       0.001828559692
 40       0.000470221603
 41       0.000684240122
 42      -0.001097446670
 43      -0.000272598334
 44      -0.000396791568
 45       0.000643898268
 46       0.000151587431
 47       0.000219617714
 48      -0.000356650845
 49      -0.000071051689
 50      -0.000103245217
 51       0.000163758365
 52       0.000022621757
 53       0.000032894687
 54      -0.000052054348
 55       0.000000313166
 56      -0.000000035721
 57      -0.000000402023
 58      -0.000000159274
 59       0.000000021065
 60       0.000000105697
 61      -0.000000359855
 62      -0.000000442268
 63      -0.000000086995
 64       0.000000074390
 65       0.000000094800
 66       0.000000811971
 67       0.000000598504
 68       0.000000019253
 69       0.000000044875
 70       0.000000039973
 71      -0.000001918342