[Molden Format]
[Title]
 Molden file created by orca_2mkl for BaseName=/home/nikolayandreadi_2125/_scratch/F2_cc/Gd_F2_cc

[Atoms] AU
Gd   1  64         -0.3142709047        -0.4054955441        -1.5452668542 
F    2   9         -1.8747349365         2.9209232290        -0.6078663158 
F    3   9          3.3639468444        -0.8538160618        -0.7248535915 
[GTO]
  1 0
s   6 1.0 
  1133304.9414800000      2174.9610498235
   503691.0851020000      -577.4941628565
   223862.7044900000      1271.8793195317
    99494.5353290000       292.2852755405
    44219.7934790000       774.9724147105
    19653.2415460000       586.7258609135
s   1 1.0 
     8734.7740210000       643.9451069508
s   1 1.0 
     3882.1217870000       350.5193187461
s   1 1.0 
     1725.3874610000       190.7985502128
s   1 1.0 
      766.8388710000       103.8575758734
s   1 1.0 
      340.8172760000        56.5329037360
s   1 1.0 
      151.4743450000        30.7726150905
s   1 1.0 
       67.3219310000        16.7504899843
s   1 1.0 
       29.9208580000         9.1178118166
s   1 1.0 
       13.2981590000         4.9631080848
s   1 1.0 
        5.9102930000         2.7015738927
s   1 1.0 
        2.6267970000         1.4705506110
s   1 1.0 
        1.1674650000         0.8004661926
s   1 1.0 
        0.5188730000         0.4357183963
s   1 1.0 
        0.2306100000         0.2371748825
s   1 1.0 
        0.1024940000         0.1291022836
s   1 1.0 
        0.0455530000         0.0702745106
s   1 1.0 
        0.0202460000         0.0382529133
p   5 1.0 
    15432.8043060000      3126.8623215264
     6173.1217220000      1264.6366638851
     2469.2486890000      2002.5787782743
      987.6994760000      1963.6893411004
      395.0797900000      1867.4733471641
p   1 1.0 
      158.0319160000       798.6768471840
p   1 1.0 
       63.2127660000       254.0657253142
p   1 1.0 
       25.2851070000        80.8204162074
p   1 1.0 
       10.1140430000        25.7096451541
p   1 1.0 
        4.0456170000         8.1784507898
p   1 1.0 
        1.6182470000         2.6016334098
p   1 1.0 
        0.6472990000         0.8276014788
p   1 1.0 
        0.2589190000         0.2632661299
p   1 1.0 
        0.1035680000         0.0837475431
p   1 1.0 
        0.0414270000         0.0266406271
p   1 1.0 
        0.0165710000         0.0084747322
d   4 1.0 
     1092.7062230000      4841.5336151871
      397.3477180000      4644.8935401418
      144.4900790000      4335.5630527329
       52.5418470000      2336.0290078754
d   1 1.0 
       19.1061260000       497.7625276697
d   1 1.0 
        6.9476820000        84.7598081537
d   1 1.0 
        2.5264300000        14.4330396780
d   1 1.0 
        0.9187020000         2.4576823001
d   1 1.0 
        0.3340730000         0.4184971391
d   1 1.0 
        0.1214810000         0.0712622795
d   1 1.0 
        0.0441750000         0.0121347005
d   1 1.0 
        0.0160640000         0.0020663984
f   4 1.0 
       34.7127000000      1486.0079731034
       11.5709000000       452.7076001348
        3.8569670000        63.6295197498
        1.2856560000         3.8109128600
f   1 1.0 
        0.4285520000         0.8472430467
f   1 1.0 
        0.1428510000         0.0715298757

  2 0
s   6 1.0 
    35479.1004410000         1.9229128581
     5318.4728983000         2.2734773358
     1210.4810975000         3.4747482552
      342.8551814000         5.2879612972
      112.0194318100         7.1666332516
       40.7147402500         7.7556346254
s   1 1.0 
       16.0396781100         5.7122450312
s   1 1.0 
        6.5038186700         2.9025947842
s   1 1.0 
        1.5440477500         0.9872011154
s   1 1.0 
        0.6122345300        -0.4932856223
s   1 1.0 
        0.2402798000         0.2445952611
p   4 1.0 
       80.2339004800         4.2755032106
       18.5940107400         4.7314752302
        5.6867902700         4.0864798013
        1.9511006300         2.2989954518
p   1 1.0 
        0.6697021100         0.8635593126
p   1 1.0 
        0.2165130000         0.2105208234
d   1 1.0 
        3.1070000000        20.7284714039
d   1 1.0 
        0.8550000000         2.1672588463
f   1 1.0 
        1.9170000000        24.6547062912

  3 0
s   6 1.0 
    35479.1004410000         1.9229128581
     5318.4728983000         2.2734773358
     1210.4810975000         3.4747482552
      342.8551814000         5.2879612972
      112.0194318100         7.1666332516
       40.7147402500         7.7556346254
s   1 1.0 
       16.0396781100         5.7122450312
s   1 1.0 
        6.5038186700         2.9025947842
s   1 1.0 
        1.5440477500         0.9872011154
s   1 1.0 
        0.6122345300        -0.4932856223
s   1 1.0 
        0.2402798000         0.2445952611
p   4 1.0 
       80.2339004800         4.2755032106
       18.5940107400         4.7314752302
        5.6867902700         4.0864798013
        1.9511006300         2.2989954518
p   1 1.0 
        0.6697021100         0.8635593126
p   1 1.0 
        0.2165130000         0.2105208234
d   1 1.0 
        3.1070000000        20.7284714039
d   1 1.0 
        0.8550000000         2.1672588463
f   1 1.0 
        1.9170000000        24.6547062912

[5D]
[7F]
[9G]
[MO]
 Sym=     1a
 Ene= -1.85301339771343E+03
 Spin= Alpha
 Occup= 1.000000
  1       0.086997693384
  2       0.097960367857
  3       0.173998080155
  4       0.299847729934
  5       0.340956936203
  6       0.172341780260
  7       0.010167805093
  8       0.003228928566
  9      -0.002350024127
 10       0.001549912038
 11      -0.001042553188
 12       0.000698006352
 13      -0.000460410566
 14       0.000302568652
 15      -0.000197134508
 16       0.000120276296
 17      -0.000048704741
 18       0.000012826475
 19      -0.000000054268
 20      -0.000000075377
 21      -0.000000045720
 22       0.000000138130
 23       0.000000189726
 24       0.000000115484
 25      -0.000000097271
 26      -0.000000132948
 27      -0.000000081054
 28       0.000000177957
 29       0.000000241927
 30       0.000000147747
 31      -0.000000298670
 32      -0.000000405239
 33      -0.000000247638
 34       0.000000498263
 35       0.000000675599
 36       0.000000412940
 37      -0.000000901560
 38      -0.000001223425
 39      -0.000000747581
 40       0.000001569833
 41       0.000002133898
 42       0.000001303202
 43      -0.000002269016
 44      -0.000003080780
 45      -0.000001882183
 46       0.000004398499
 47       0.000005973158
 48       0.000003649052
 49      -0.000000961825
 50      -0.000001303952
 51      -0.000000797039
 52       0.000000209315
 53       0.000000284088
 54       0.000000173584
 55       0.000000001990
 56      -0.000000001587
 57      -0.000000002355
 58       0.000000000326
 59      -0.000000000863
 60       0.000000116310
 61      -0.000000027141
 62      -0.000000047488
 63      -0.000000038290
 64       0.000000111369
 65      -0.000000277844
 66       0.000000063232
 67       0.000000111386
 68       0.000000092642
 69      -0.000000269880
 70       0.000000584535
 71      -0.000000127320
 72      -0.000000227004
 73      -0.000000199110
 74       0.000000581471
 75      -0.000001160689
 76       0.000000248460
 77       0.000000445655
 78       0.000000397815
 79      -0.000001164677
 80       0.000001777218
 81      -0.000000367917
 82      -0.000000666260
 83      -0.000000618408
 84       0.000001813371
 85      -0.000004200872
 86       0.000000832963
 87       0.000001522131
 88       0.000001497369
 89      -0.000004378513
 90       0.000000601465
 91      -0.000000149115
 92      -0.000000255995
 93      -0.000000192821
 94       0.000000555517
 95      -0.000000121786
 96       0.000000031775
 97       0.000000053927
 98       0.000000037784
 99      -0.000000108643
100      -0.000000124170
101      -0.000000055518
102      -0.000000063152
103       0.000000020489
104      -0.000000089952
105      -0.000000276820
106       0.000000088692
107       0.000000614922
108       0.000000275714
109       0.000000314362
110      -0.000000102791
111       0.000000451741
112       0.000001380462
113      -0.000000442285
114      -0.000001356984
115      -0.000000624392
116      -0.000000707240
117       0.000000249707
118      -0.000001064462
119      -0.000003154475
120       0.000001010963
121       0.000000118018
122      -0.000000547638
123       0.000001049375
124      -0.000003186050
125      -0.000006273794
126      -0.000010484930
127      -0.000000229640
128       0.000000534097
129       0.000000156220
130       0.000001161389
131      -0.000002641037
132      -0.000000765429
133      -0.000001193511
134       0.000003418249
135       0.000001075219
136       0.000000086001
137       0.000000019418
138      -0.000000072654
139       0.000000077805
140       0.000000111073
141      -0.000000610748
142      -0.000000214831
143       0.000000539906
144      -0.000000683917
145      -0.000000881533
146       0.000000013405
147       0.000000001923
148       0.000000004871
149       0.000000010694
150       0.000000000223
151       0.000000007115
152      -0.000000012671
153       0.000000118743
154      -0.000000550825
155       0.000001054834
156      -0.000003192874
157      -0.000006272101
158      -0.000010485199
159       0.000000587355
160      -0.000000052708
161       0.000000138747
162      -0.000002892548
163       0.000000282595
164      -0.000000673849
165       0.000003661641
166      -0.000000077259
167       0.000000967976
168       0.000000091379
169      -0.000000067518
170      -0.000000006062
171      -0.000000134815
172       0.000000044420
173      -0.000000643285
174       0.000000512708
175      -0.000000024684
176       0.000001098285
177      -0.000000309269
178       0.000000015004
179       0.000000007919
180       0.000000002866
181      -0.000000010369
182      -0.000000005072
183       0.000000017613
184       0.000000004740
 Sym=     1a
 Ene= -3.10626590588934E+02
 Spin= Alpha
 Occup= 1.000000
  1       0.032481215753
  2       0.040293329370
  3       0.072582157379
  4       0.147582777488
  5       0.205320138844
  6       0.084145324500
  7      -0.468440979144
  8      -0.603398982174
  9      -0.098306723217
 10      -0.004134224372
 11       0.003608755895
 12      -0.002561636866
 13       0.001836990843
 14      -0.001253795203
 15       0.000824159149
 16      -0.000505805387
 17       0.000205280317
 18      -0.000054135704
 19      -0.000004278649
 20      -0.000005867994
 21      -0.000003573305
 22      -0.000006639384
 23      -0.000009095597
 24      -0.000005540724
 25      -0.000005251319
 26      -0.000007192685
 27      -0.000004381743
 28       0.000000578323
 29       0.000000793091
 30       0.000000482982
 31       0.000000161498
 32       0.000000209860
 33       0.000000130090
 34      -0.000001726871
 35      -0.000002338539
 36      -0.000001429948
 37       0.000003622055
 38       0.000004914465
 39       0.000003003144
 40      -0.000006503128
 41      -0.000008842377
 42      -0.000005399638
 43       0.000009689889
 44       0.000013163684
 45       0.000008040835
 46      -0.000018571052
 47      -0.000025223162
 48      -0.000015408297
 49       0.000004049129
 50       0.000005490138
 51       0.000003355695
 52      -0.000000882139
 53      -0.000001197478
 54      -0.000000731643
 55      -0.000001778414
 56       0.000000350033
 57       0.000000641989
 58       0.000000634435
 59      -0.000001859304
 60       0.000000593730
 61      -0.000000141865
 62      -0.000000247607
 63      -0.000000191615
 64       0.000000559931
 65       0.000000332129
 66      -0.000000036411
 67      -0.000000081528
 68      -0.000000141590
 69       0.000000417480
 70      -0.000001879087
 71       0.000000383515
 72       0.000000696002
 73       0.000000660027
 74      -0.000001931493
 75       0.000004811367
 76      -0.000001033771
 77      -0.000001853275
 78      -0.000001644708
 79       0.000004817938
 80      -0.000007608664
 81       0.000001578601
 82       0.000002858686
 83       0.000002642181
 84      -0.000007753759
 85       0.000017720496
 86      -0.000003507478
 87      -0.000006413607
 88      -0.000006319705
 89       0.000018484122
 90      -0.000002520646
 91       0.000000625900
 92       0.000001074186
 93       0.000000807224
 94      -0.000002325659
 95       0.000000509247
 96      -0.000000133050
 97      -0.000000225760
 98      -0.000000157814
 99       0.000000453828
100       0.000000636093
101       0.000000276481
102       0.000000314701
103      -0.000000093369
104       0.000000420660
105       0.000001355064
106      -0.000000433742
107      -0.000002780621
108      -0.000001239493
109      -0.000001413968
110       0.000000454293
111      -0.000002007568
112      -0.000006186908
113       0.000001981843
114       0.000005784316
115       0.000002658960
116       0.000003012286
117      -0.000001060677
118       0.000004525733
119       0.000013427813
120      -0.000004303327
121      -0.000000421056
122       0.000002129819
123      -0.000004309254
124       0.000013445208
125       0.000026291933
126       0.000044068791
127       0.000001010225
128      -0.000002347259
129      -0.000000686286
130      -0.000004916654
131       0.000011180436
132       0.000003240307
133       0.000004979626
134      -0.000014317530
135      -0.000004508930
136      -0.000000402926
137      -0.000000099956
138       0.000000343956
139      -0.000000381037
140      -0.000000530640
141       0.000002669939
142       0.000000946615
143      -0.000002363769
144       0.000003004388
145       0.000003861797
146      -0.000000087713
147       0.000000008563
148      -0.000000056175
149      -0.000000071767
150      -0.000000034850
151      -0.000000097594
152       0.000000070546
153      -0.000000423385
154       0.000002141257
155      -0.000004329672
156       0.000013469893
157       0.000026280594
158       0.000044068234
159      -0.000002580013
160       0.000000232364
161      -0.000000609114
162       0.000012242690
163      -0.000001196064
164       0.000002852068
165      -0.000015331522
166       0.000000305299
167      -0.000004060434
168      -0.000000427483
169       0.000000320944
170       0.000000020698
171       0.000000648673
172      -0.000000206213
173       0.000002811188
174      -0.000002245334
175       0.000000114095
176      -0.000004814979
177       0.000001349304
178      -0.000000090893
179      -0.000000076314
180      -0.000000006873
181       0.000000080181
182       0.000000011178
183      -0.000000139970
184       0.000000005558
 Sym=     1a
 Ene= -2.76869710667128E+02
 Spin= Alpha
 Occup= 1.000000
  1      -0.000000000078
  2      -0.000000000094
  3      -0.000000000187
  4      -0.000000000325
  5      -0.000000000601
  6       0.000000000076
  7       0.000000000883
  8       0.000000001627
  9      -0.000000000561
 10       0.000000002145
 11      -0.000000003900
 12       0.000000006288
 13      -0.000000010206
 14       0.000000014160
 15      -0.000000009851
 16      -0.000000002335
 17       0.000000002267
 18      -0.000000000508
 19      -0.086857984179
 20      -0.130401579742
 21       0.318075621554
 22      -0.117490436346
 23      -0.176390675538
 24       0.430252255530
 25      -0.074655140363
 26      -0.112081213168
 27       0.273388571324
 28      -0.003896533084
 29      -0.005849940873
 30       0.014269180437
 31      -0.001363264520
 32      -0.002046695472
 33       0.004992299641
 34       0.000933729403
 35       0.001401826008
 36      -0.003419332377
 37      -0.000556741881
 38      -0.000835847235
 39       0.002038794249
 40       0.000332801232
 41       0.000499640654
 42      -0.001218714899
 43      -0.000193798148
 44      -0.000290952571
 45       0.000709681059
 46       0.000107232043
 47       0.000160989508
 48      -0.000392686290
 49      -0.000050601672
 50      -0.000075969305
 51       0.000185305824
 52       0.000016088938
 53       0.000024154644
 54      -0.000058918418
 55       0.000002490282
 56       0.000001332020
 57       0.000001769317
 58       0.000000496033
 59      -0.000001351057
 60      -0.000000885999
 61      -0.000000475345
 62      -0.000000628600
 63      -0.000000175740
 64       0.000000481083
 65      -0.000000554246
 66      -0.000000294571
 67      -0.000000394695
 68      -0.000000111211
 69       0.000000299932
 70       0.000000792116
 71       0.000000419550
 72       0.000000564540
 73       0.000000159437
 74      -0.000000427926
 75      -0.000001626749
 76      -0.000000861636
 77      -0.000001159139
 78      -0.000000327299
 79       0.000000878668
 80       0.000002322085
 81       0.000001229606
 82       0.000001654372
 83       0.000000467126
 84      -0.000001253816
 85      -0.000002071738
 86      -0.000001104510
 87      -0.000001475088
 88      -0.000000415084
 89       0.000001123861
 90      -0.000001274268
 91      -0.000000685629
 92      -0.000000901975
 93      -0.000000251210
 94       0.000000691670
 95       0.000000425101
 96       0.000000228519
 97       0.000000301070
 98       0.000000083936
 99      -0.000000230719
100       0.000000495067
101      -0.000000193834
102      -0.000000336014
103      -0.000000185227
104       0.000000506466
105      -0.000000262774
106       0.000000070826
107      -0.000002080183
108       0.000000847008
109       0.000001458300
110       0.000000771947
111      -0.000002109444
112       0.000001082811
113      -0.000000292456
114       0.000002502680
115      -0.000001022549
116      -0.000001745615
117      -0.000000936054
118       0.000002535763
119      -0.000001302033
120       0.000000345110
121       0.000000000045
122      -0.000000000238
123       0.000000000505
124      -0.000000001684
125      -0.000000001711
126       0.000000001473
127      -0.000000571143
128      -0.000000856266
129       0.000002090562
130       0.000001542763
131       0.000002311125
132      -0.000005645411
133      -0.000002248470
134      -0.000003377377
135       0.000008235226
136      -0.000001231842
137       0.000001411676
138      -0.000002254799
139      -0.000001375966
140       0.000000196549
141       0.000003882918
142      -0.000004444266
143       0.000007104345
144       0.000004333864
145      -0.000000621550
146       0.000001417708
147       0.000000699444
148      -0.000002037965
149       0.000000969290
150       0.000002000378
151      -0.000000429799
152       0.000001434689
153       0.000000000046
154      -0.000000000243
155       0.000000000514
156      -0.000000001700
157      -0.000000001731
158       0.000000001416
159      -0.000000567867
160      -0.000000853824
161       0.000002082627
162       0.000001527287
163       0.000002298269
164      -0.000005605734
165      -0.000002245312
166      -0.000003369171
167       0.000008218011
168      -0.000001073442
169      -0.000002647733
170       0.000000618057
171       0.000000917921
172       0.000001055499
173       0.000003375783
174       0.000008321343
175      -0.000001939569
176      -0.000002882750
177      -0.000003318427
178       0.000001564493
179      -0.000001916471
180      -0.000000037763
181      -0.000002086345
182       0.000001022113
183      -0.000001123378
184      -0.000001024113
 Sym=     1a
 Ene= -2.76869604045988E+02
 Spin= Alpha
 Occup= 1.000000
  1       0.000000846796
  2       0.000001020286
  3       0.000002013960
  4       0.000003514724
  5       0.000006431265
  6      -0.000000710568
  7      -0.000008997703
  8      -0.000017487107
  9       0.000003988925
 10      -0.000022082181
 11       0.000040986562
 12      -0.000065683379
 13       0.000106739219
 14      -0.000148400384
 15       0.000103257551
 16       0.000024467175
 17      -0.000023793760
 18       0.000005331989
 19       0.188225605441
 20       0.256485735250
 21       0.156550952828
 22       0.254606463294
 23       0.346939649806
 24       0.211761222629
 25       0.161780626802
 26       0.220450470874
 27       0.134556142790
 28       0.008442465874
 29       0.011504131004
 30       0.007021765836
 31       0.002957437814
 32       0.004029954975
 33       0.002459758975
 34      -0.002029892891
 35      -0.002766041018
 36      -0.001688303257
 37       0.001218873259
 38       0.001660926885
 39       0.001013770166
 40      -0.000743653044
 41      -0.001013468103
 42      -0.000618559227
 43       0.000446717322
 44       0.000608941180
 45       0.000371629064
 46      -0.000231368010
 47      -0.000314683229
 48      -0.000192191504
 49       0.000106142663
 50       0.000144438207
 51       0.000088200842
 52      -0.000033903821
 53      -0.000046151466
 54      -0.000028179162
 55      -0.000001580932
 56       0.000001801018
 57       0.000002528226
 58      -0.000000600949
 59       0.000001952115
 60      -0.000000035849
 61      -0.000000555938
 62      -0.000000726070
 63       0.000000451877
 64      -0.000001399110
 65       0.000002791676
 66      -0.000000800691
 67      -0.000001340924
 68      -0.000000794678
 69       0.000002308235
 70      -0.000007250248
 71       0.000001989315
 72       0.000003367376
 73       0.000002129224
 74      -0.000006210287
 75       0.000016206479
 76      -0.000004503289
 77      -0.000007612635
 78      -0.000004698044
 79       0.000013736579
 80      -0.000025964446
 81       0.000007088582
 82       0.000012062434
 83       0.000007576415
 84      -0.000022288742
 85      -0.000003519357
 86      -0.000000751726
 87      -0.000000470259
 88       0.000002144096
 89      -0.000007056726
 90       0.000005355677
 91      -0.000001920882
 92      -0.000003115638
 93      -0.000001166111
 94       0.000003469030
 95      -0.000001602279
 96       0.000000600386
 97       0.000000964018
 98       0.000000331646
 99      -0.000000977043
100       0.000002227000
101       0.000000932072
102       0.000001063497
103      -0.000000273836
104       0.000001296518
105       0.000004465813
106      -0.000001428800
107      -0.000011492217
108      -0.000004846360
109      -0.000005547429
110       0.000001471143
111      -0.000006933200
112      -0.000023419802
113       0.000007493750
114       0.000001185060
115       0.000000235495
116       0.000000222602
117       0.000000234172
118      -0.000000800901
119       0.000000067660
120       0.000000009837
121      -0.000000470660
122       0.000002502768
123      -0.000005312515
124       0.000017712277
125       0.000018015601
126      -0.000015400969
127       0.000004625776
128      -0.000005859100
129      -0.000001138391
130      -0.000017862732
131       0.000026754386
132       0.000006088668
133       0.000000301782
134       0.000017659480
135       0.000007321531
136      -0.000001896185
137      -0.000000900427
138       0.000000465716
139      -0.000000556810
140      -0.000003977227
141       0.000009809294
142       0.000004431740
143      -0.000004866573
144       0.000006365248
145       0.000018413032
146       0.000000184807
147       0.000000853248
148      -0.000000735811
149       0.000000995872
150      -0.000000447570
151      -0.000001483099
152      -0.000002136586
153      -0.000000479107
154       0.000002544262
155      -0.000005386947
156       0.000017822506
157       0.000018162157
158      -0.000014760174
159      -0.000007079395
160       0.000002556472
161      -0.000000884625
162       0.000031122471
163      -0.000008572856
164       0.000004982103
165       0.000016545135
166       0.000005774599
167       0.000006884723
168      -0.000001971000
169       0.000000501519
170      -0.000000613055
171       0.000002872596
172      -0.000002886587
173       0.000010194917
174      -0.000004822228
175       0.000002313898
176      -0.000016286962
177       0.000011087034
178       0.000000270567
179      -0.000000977875
180       0.000000628518
181      -0.000000600424
182      -0.000000805017
183       0.000000006233
184       0.000002632599
 Sym=     1a
 Ene= -2.76869228889000E+02
 Spin= Alpha
 Occup= 1.000000
  1      -0.000000001919
  2      -0.000000002421
  3      -0.000000004115
  4      -0.000000009162
  5      -0.000000010965
  6      -0.000000007888
  7       0.000000032196
  8       0.000000018660
  9       0.000000046943
 10      -0.000000055693
 11       0.000000085401
 12      -0.000000130646
 13       0.000000152486
 14      -0.000000107257
 15       0.000000374295
 16      -0.000000974758
 17       0.000000202113
 18      -0.000000032022
 19       0.287661341605
 20      -0.207201632072
 21      -0.006393875391
 22       0.389107458336
 23      -0.280272975397
 24      -0.008648727234
 25       0.247247937967
 26      -0.178091975528
 27      -0.005495603390
 28       0.012899728694
 29      -0.009291637119
 30      -0.000286723412
 31       0.004526558696
 32      -0.003260467422
 33      -0.000100612362
 34      -0.003118396946
 35       0.002246176031
 36       0.000069314432
 37       0.001893324541
 38      -0.001363773075
 39      -0.000042090028
 40      -0.001191462800
 41       0.000858284353
 42       0.000026514386
 43       0.000749313826
 44      -0.000539856501
 45      -0.000016707513
 46      -0.000347302925
 47       0.000249749635
 48       0.000007550806
 49       0.000148808676
 50      -0.000107059103
 51      -0.000003255382
 52      -0.000048208065
 53       0.000034693103
 54       0.000001058807
 55      -0.000000043571
 56       0.000001209886
 57      -0.000000941075
 58       0.000002960053
 59       0.000000966878
 60      -0.000000009849
 61       0.000000172685
 62      -0.000000133645
 63       0.000000423895
 64       0.000000132710
 65       0.000000116868
 66      -0.000002872681
 67       0.000002234751
 68      -0.000007037630
 69      -0.000002274028
 70      -0.000000303220
 71       0.000007538171
 72      -0.000005867753
 73       0.000018470589
 74       0.000005970124
 75       0.000000665357
 76      -0.000016868051
 77       0.000013138450
 78      -0.000041335257
 79      -0.000013374106
 80      -0.000001035337
 81       0.000027139451
 82      -0.000021161129
 83       0.000066516112
 84       0.000021557475
 85       0.000000040590
 86       0.000003607984
 87      -0.000002911887
 88       0.000008875021
 89       0.000003077009
 90       0.000000231612
 91      -0.000006869583
 92       0.000005376089
 93      -0.000016846597
 94      -0.000005490576
 95      -0.000000070203
 96       0.000002030809
 97      -0.000001588206
 98       0.000004979732
 99       0.000001621188
100      -0.000000190056
101       0.000003485463
102      -0.000002388829
103      -0.000003289702
104      -0.000001250051
105      -0.000000237312
106      -0.000001010658
107       0.000000994501
108      -0.000017968110
109       0.000012303072
110       0.000017599448
111       0.000006648030
112       0.000000986726
113       0.000004390860
114      -0.000000075844
115       0.000002429709
116      -0.000001728581
117       0.000000729579
118       0.000000087801
119      -0.000001301628
120      -0.000004571342
121       0.000000725284
122      -0.000003862809
123       0.000008237187
124      -0.000027833783
125      -0.000028788514
126       0.000022524203
127      -0.000003692759
128       0.000009671606
129       0.000002956004
130       0.000017882966
131      -0.000043419680
132      -0.000012914488
133       0.000018783416
134      -0.000026705992
135      -0.000005818150
136       0.000002262079
137       0.000000987047
138      -0.000002663618
139       0.000003785783
140       0.000003043954
141      -0.000013131728
142      -0.000005723371
143       0.000014085517
144      -0.000019859011
145      -0.000018690536
146       0.000000612060
147       0.000000224504
148       0.000000139861
149       0.000000985354
150       0.000000244981
151       0.000000193032
152      -0.000001465318
153      -0.000000741266
154       0.000003942057
155      -0.000008382565
156       0.000028089702
157       0.000029119622
158      -0.000021445897
159      -0.000010493306
160       0.000000518981
161      -0.000002651998
162       0.000047186665
163      -0.000003520147
164       0.000011439332
165       0.000030965212
166      -0.000009449779
167       0.000004580408
168      -0.000002445426
169       0.000002601564
170      -0.000000110686
171       0.000005004083
172      -0.000000249879
173       0.000013981223
174      -0.000013650642
175       0.000000974377
176      -0.000027627415
177       0.000003443102
178      -0.000000645790
179      -0.000000179238
180      -0.000000267623
181       0.000000947675
182       0.000000310671
183      -0.000001098324
184      -0.000001057391
 Sym=     1a
 Ene= -7.08839979090467E+01
 Spin= Alpha
 Occup= 1.000000
  1       0.015137115539
  2       0.019020326545
  3       0.034590899532
  4       0.071496412923
  5       0.105114678981
  6       0.039274522443
  7      -0.354987576396
  8      -0.694982323284
  9       0.405376389490
 10       0.921004077370
 11       0.054071443781
 12       0.034432203391
 13      -0.023221589471
 14       0.015883087530
 15      -0.010640565725
 16       0.006556353601
 17      -0.002671912635
 18       0.000706249600
 19      -0.000010137211
 20      -0.000013976310
 21      -0.000008496128
 22      -0.000015569155
 23      -0.000021475640
 24      -0.000013052940
 25      -0.000004280518
 26      -0.000005820120
 27      -0.000003553983
 28       0.000046369424
 29       0.000063769828
 30       0.000038797149
 31       0.000012093564
 32       0.000016889456
 33       0.000010223969
 34       0.000024003954
 35       0.000032576257
 36       0.000019905358
 37      -0.000044298784
 38      -0.000060147255
 39      -0.000036746569
 40       0.000085204274
 41       0.000115944230
 42       0.000070783718
 43      -0.000125148435
 44      -0.000170111959
 45      -0.000103890517
 46       0.000239705520
 47       0.000325623273
 48       0.000198905190
 49      -0.000052619650
 50      -0.000071358078
 51      -0.000043613214
 52       0.000011486392
 53       0.000015596310
 54       0.000009528357