[Molden Format]
[Title]
 Molden file created by orca_2mkl for BaseName=/home/smirnovaanastasia2304_2125/_scratch/HERBD/Tb_Cl_cc

[Atoms] AU
Tb   1  65          0.4024039521         0.6841621187        -1.0693242096 
Cl   2  17         -1.8178050470        -2.6174388811        -3.4117361286 
Cl   3  17         -1.8094146630         4.4165356394         0.5842258418 
Cl   4  17          4.7913987228        -0.2677817521         0.0595188143 
[GTO]
  1 0
s   6 1.0 
  1169335.0320500000      2257.9371502123
   519704.4586890000      -602.2483363036
   230979.7594170000      1317.3870848776
   102657.6708520000       297.4045038601
    45625.6314900000       796.7055554523
    20278.0584400000       597.4180684830
s   1 1.0 
     9012.4704180000       659.2391358096
s   1 1.0 
     4005.5424080000       358.8443336015
s   1 1.0 
     1780.2410700000       195.3301142957
s   1 1.0 
      791.2182530000       106.3242469495
s   1 1.0 
      351.6525570000        57.8755894164
s   1 1.0 
      156.2900250000        31.5034805347
s   1 1.0 
       69.4622330000        17.1483227009
s   1 1.0 
       30.8721040000         9.3343646701
s   1 1.0 
       13.7209350000         5.0809845280
s   1 1.0 
        6.0981930000         2.7657375498
s   1 1.0 
        2.7103080000         1.5054768355
s   1 1.0 
        1.2045810000         0.8194776225
s   1 1.0 
        0.5353700000         0.4460675345
s   1 1.0 
        0.2379420000         0.2428082411
s   1 1.0 
        0.1057520000         0.1321680658
s   1 1.0 
        0.0470010000         0.0719433101
s   1 1.0 
        0.0208890000         0.0391605091
p   5 1.0 
    15962.9363470000      3334.0319210996
     6385.1745390000      1330.9849615702
     2554.0698150000      2106.5012424578
     1021.6279260000      2051.4716840897
      408.6511700000      1945.7955945689
p   1 1.0 
      163.4604680000       833.1170267169
p   1 1.0 
       65.3841870000       265.0214329808
p   1 1.0 
       26.1536750000        84.3055160641
p   1 1.0 
       10.4614700000        26.8182836797
p   1 1.0 
        4.1845880000         8.5311184025
p   1 1.0 
        1.6738350000         2.7138190943
p   1 1.0 
        0.6695340000         0.8632883556
p   1 1.0 
        0.2678140000         0.2746196966
p   1 1.0 
        0.1071250000         0.0873581909
p   1 1.0 
        0.0428500000         0.0277893649
p   1 1.0 
        0.0171400000         0.0088400274
d   4 1.0 
     1138.5148960000      5200.0410121432
      414.0054170000      4972.1062622461
      150.5474240000      4645.8865053976
       54.7445180000      2512.1027240162
d   1 1.0 
       19.9070970000       534.8524205797
d   1 1.0 
        7.2389450000        91.0755532793
d   1 1.0 
        2.6323430000        15.5084866418
d   1 1.0 
        0.9572160000         2.6408120610
d   1 1.0 
        0.3480780000         0.4496805357
d   1 1.0 
        0.1265740000         0.0765725248
d   1 1.0 
        0.0460270000         0.0130389390
d   1 1.0 
        0.0167370000         0.0022202706
f   4 1.0 
       32.1811360000      1485.3691980056
       10.7270450000       408.9486275325
        3.5756820000        52.1705547224
        1.1918940000         3.1163730569
f   1 1.0 
        0.3972980000         0.7145159560
f   1 1.0 
        0.1324330000         0.0603241996

  2 0
s   7 1.0 
    69507.9909450000         4.1142286333
    10426.1568800000         4.2286655222
     2373.2334061000         5.8493829067
      671.5642007100         8.3358677251
      218.4199979000        10.0089622684
       77.5722497100         8.2783277553
       28.8888152800         2.9822029766
s   1 1.0 
      127.1052718500        26.9794296956
s   1 1.0 
       39.3395829600        11.1952141621
s   1 1.0 
        7.6740680000         3.2860890225
s   1 1.0 
        3.8745627600        -1.9682357562
s   1 1.0 
        1.8385832600         1.1253110111
s   1 1.0 
        0.5022905800        -0.4252324193
s   1 1.0 
        0.1796272300         0.1966478587
p   6 1.0 
      666.5042328400        13.1758105786
      157.6424169000        16.0544655669
       50.2625209800        17.4320614645
       18.5360781100        14.3789566857
        7.2940532800         7.6571902731
        2.9433249000         1.9874071930
p   1 1.0 
        1.0404970800         1.4979287975
p   1 1.0 
        0.3845641500        -0.4316692201
p   1 1.0 
        0.1306964300         0.1120133392
d   2 1.0 
        4.6100000000         7.5524217504
        1.0110000000         2.6539585854
d   1 1.0 
        0.3390000000         0.4293579962
f   1 1.0 
        0.7060000000         2.6050175686

  3 0
s   7 1.0 
    69507.9909450000         4.1142286333
    10426.1568800000         4.2286655222
     2373.2334061000         5.8493829067
      671.5642007100         8.3358677251
      218.4199979000        10.0089622684
       77.5722497100         8.2783277553
       28.8888152800         2.9822029766
s   1 1.0 
      127.1052718500        26.9794296956
s   1 1.0 
       39.3395829600        11.1952141621
s   1 1.0 
        7.6740680000         3.2860890225
s   1 1.0 
        3.8745627600        -1.9682357562
s   1 1.0 
        1.8385832600         1.1253110111
s   1 1.0 
        0.5022905800        -0.4252324193
s   1 1.0 
        0.1796272300         0.1966478587
p   6 1.0 
      666.5042328400        13.1758105786
      157.6424169000        16.0544655669
       50.2625209800        17.4320614645
       18.5360781100        14.3789566857
        7.2940532800         7.6571902731
        2.9433249000         1.9874071930
p   1 1.0 
        1.0404970800         1.4979287975
p   1 1.0 
        0.3845641500        -0.4316692201
p   1 1.0 
        0.1306964300         0.1120133392
d   2 1.0 
        4.6100000000         7.5524217504
        1.0110000000         2.6539585854
d   1 1.0 
        0.3390000000         0.4293579962
f   1 1.0 
        0.7060000000         2.6050175686

  4 0
s   7 1.0 
    69507.9909450000         4.1142286333
    10426.1568800000         4.2286655222
     2373.2334061000         5.8493829067
      671.5642007100         8.3358677251
      218.4199979000        10.0089622684
       77.5722497100         8.2783277553
       28.8888152800         2.9822029766
s   1 1.0 
      127.1052718500        26.9794296956
s   1 1.0 
       39.3395829600        11.1952141621
s   1 1.0 
        7.6740680000         3.2860890225
s   1 1.0 
        3.8745627600        -1.9682357562
s   1 1.0 
        1.8385832600         1.1253110111
s   1 1.0 
        0.5022905800        -0.4252324193
s   1 1.0 
        0.1796272300         0.1966478587
p   6 1.0 
      666.5042328400        13.1758105786
      157.6424169000        16.0544655669
       50.2625209800        17.4320614645
       18.5360781100        14.3789566857
        7.2940532800         7.6571902731
        2.9433249000         1.9874071930
p   1 1.0 
        1.0404970800         1.4979287975
p   1 1.0 
        0.3845641500        -0.4316692201
p   1 1.0 
        0.1306964300         0.1120133392
d   2 1.0 
        4.6100000000         7.5524217504
        1.0110000000         2.6539585854
d   1 1.0 
        0.3390000000         0.4293579962
f   1 1.0 
        0.7060000000         2.6050175686

[5D]
[7F]
[9G]
[MO]
 Sym=     1a
 Ene= -1.91782577903287E+03
 Spin= Alpha
 Occup= 1.000000
  1       0.088673610547
  2       0.099133515055
  3       0.174812296686
  4       0.300058191943
  5       0.339540855577
  6       0.171170852373
  7       0.009937224671
  8       0.003259411629
  9      -0.002373517976
 10       0.001568119172
 11      -0.001056412936
 12       0.000710538271
 13      -0.000473833966
 14       0.000318754521
 15      -0.000212766382
 16       0.000121139495
 17      -0.000037492067
 18       0.000009035768
 19       0.000000001995
 20       0.000000074569
 21      -0.000000044483
 22      -0.000000006601
 23      -0.000000062764
 24       0.000000043476
 25       0.000000005497
 26       0.000000059645
 27      -0.000000038687
 28      -0.000000008472
 29      -0.000000074869
 30       0.000000049171
 31       0.000000013695
 32       0.000000112214
 33      -0.000000073421
 34      -0.000000022881
 35      -0.000000182760
 36       0.000000118285
 37       0.000000040608
 38       0.000000315462
 39      -0.000000201808
 40      -0.000000076645
 41      -0.000000544809
 42       0.000000347806
 43       0.000000159056
 44       0.000000781198
 45      -0.000000580171
 46      -0.000000268206
 47      -0.000000699192
 48       0.000000761122
 49      -0.000000018582
 50       0.000000092732
 51       0.000000011772
 52       0.000000011740
 53       0.000000024096
 54      -0.000000043714
 55      -0.000000140746
 56       0.000000126090
 57       0.000000186767
 58       0.000000054596
 59      -0.000000031795
 60       0.000000228770
 61      -0.000000173929
 62      -0.000000294159
 63      -0.000000060762
 64       0.000000081532
 65      -0.000000398020
 66       0.000000275919
 67       0.000000503404
 68       0.000000081295
 69      -0.000000167295
 70       0.000000747272
 71      -0.000000499338
 72      -0.000000939286
 73      -0.000000135392
 74       0.000000331796
 75      -0.000001456430
 76       0.000000963745
 77       0.000001827985
 78       0.000000254325
 79      -0.000000655016
 80       0.000002777341
 81      -0.000001836282
 82      -0.000003487404
 83      -0.000000486561
 84       0.000001251019
 85      -0.000004413210
 86       0.000002872787
 87       0.000005542943
 88       0.000000771341
 89      -0.000002050208
 90      -0.000000063142
 91       0.000000148174
 92       0.000000087213
 93       0.000000121536
 94       0.000000080478
 95       0.000000253359
 96      -0.000000174116
 97      -0.000000317097
 98      -0.000000055725
 99       0.000000109121
100      -0.000000051033
101      -0.000000067561
102      -0.000000039924
103       0.000000067703
104      -0.000000237790
105      -0.000000295676
106       0.000000088437
107       0.000000353732
108       0.000000466724
109       0.000000283090
110      -0.000000461858
111       0.000001639705
112       0.000002044844
113      -0.000000609774
114      -0.000001000657
115      -0.000001200619
116      -0.000000818103
117       0.000001107803
118      -0.000004267877
119      -0.000005396989
120       0.000001576026
121       0.000000087251
122      -0.000000098165
123       0.000000092478
124      -0.000000712620
125      -0.000001499576
126      -0.000001311395
127      -0.000000629471
128      -0.000007082228
129       0.000000058526
130       0.000000085623
131       0.000000062820
132      -0.000000354988
133      -0.000000520011
134      -0.000000379959
135       0.000000146606
136       0.000000220371
137       0.000000142460
138      -0.000001271458
139      -0.000002413493
140      -0.000001520207
141       0.000000143908
142      -0.000000217710
143      -0.000000318742
144       0.000000014299
145      -0.000000146509
146      -0.000000468794
147       0.000000913370
148       0.000001312279
149      -0.000000181678
150       0.000000829669
151      -0.000000814502
152       0.000000128618
153       0.000000200599
154      -0.000000472786
155       0.000001151259
156       0.000000742858
157      -0.000000170291
158       0.000000082631
159      -0.000000092939
160       0.000000087463
161      -0.000000672443
162      -0.000001410387
163      -0.000001226001
164      -0.000000673402
165      -0.000007225525
166       0.000000054192
167      -0.000000093589
168      -0.000000039315
169      -0.000000314830
170       0.000000542819
171       0.000000229015
172       0.000000236682
173      -0.000000380408
174      -0.000000187260
175      -0.000001569928
176       0.000002571731
177       0.000001200471
178       0.000000205918
179       0.000000004803
180      -0.000000288647
181       0.000000082485
182       0.000000241536
183      -0.000000738529
184      -0.000000169228
185       0.000001058819
186      -0.000000431376
187      -0.000001024677
188       0.000000740615
189      -0.000000254598
190       0.000000297469
191       0.000000551014
192       0.000000841411
193       0.000001024117
194       0.000000071621
195       0.000000084710
196      -0.000000095290
197       0.000000089712
198      -0.000000690327
199      -0.000001449552
200      -0.000001261733
201      -0.000000628338
202      -0.000007025552
203      -0.000000113678
204       0.000000023123
205      -0.000000028227
206       0.000000675246
207      -0.000000138120
208       0.000000168490
209      -0.000000341242
210       0.000000081361
211      -0.000000097524
212       0.000002893469
213      -0.000000930064
214       0.000000666380
215       0.000000223751
216      -0.000000216529
217      -0.000000118754
218      -0.000000262735
219       0.000000116248
220      -0.000000870525
221       0.000000857950
222       0.000000277143
223       0.000001202530
224      -0.000000499709
225       0.000000568012
226       0.000000704005
227      -0.000000204875
228      -0.000000720651
229       0.000000218435
230       0.000000924744
231      -0.000000712787
 Sym=     1a
 Ene= -3.23017535310963E+02
 Spin= Alpha
 Occup= 1.000000
  1       0.033254113017
  2       0.040994347913
  3       0.073262964689
  4       0.148384343544
  5       0.204818601041
  6       0.080818709771
  7      -0.472617680051
  8      -0.600157439604
  9      -0.095484676774
 10      -0.004255618407
 11       0.003747666884
 12      -0.002667390440
 13       0.001924276063
 14      -0.001341678305
 15       0.000903189485
 16      -0.000517176461
 17       0.000160074195
 18      -0.000038643808
 19       0.000000264164
 20      -0.000000415622
 21      -0.000000105055
 22       0.000000373238
 23      -0.000000643297
 24      -0.000000122024
 25       0.000000282819
 26      -0.000000693393
 27       0.000000016430
 28       0.000000022912
 29      -0.000000084407
 30       0.000000058884
 31      -0.000000027462
 32      -0.000000310023
 33       0.000000170110
 34       0.000000086441
 35       0.000000698611
 36      -0.000000442153
 37      -0.000000165743
 38      -0.000001278611
 39       0.000000811276
 40       0.000000323698
 41       0.000002278475
 42      -0.000001450222
 43      -0.000000686071
 44      -0.000003331916
 45       0.000002485097
 46       0.000001158311
 47       0.000002967836
 48      -0.000003274361
 49       0.000000082200
 50      -0.000000395060
 51      -0.000000055950
 52      -0.000000051352
 53      -0.000000102986
 54       0.000000189646
 55       0.000017963739
 56      -0.000016603373
 57      -0.000023992792
 58      -0.000007455400
 59       0.000003581897
 60       0.000001732574
 61      -0.000001680015
 62      -0.000002347290
 63      -0.000000798130
 64       0.000000275849
 65       0.000000832350
 66      -0.000000454601
 67      -0.000001009503
 68      -0.000000054370
 69       0.000000463481
 70      -0.000002674921
 71       0.000001719132
 72       0.000003337598
 73       0.000000418977
 74      -0.000001250339
 75       0.000006087826
 76      -0.000004002284
 77      -0.000007632313
 78      -0.000001038036
 79       0.000002762001
 80      -0.000011845652
 81       0.000007814955
 82       0.000014869093
 83       0.000002059481
 84      -0.000005351541
 85       0.000018948197
 86      -0.000012320160
 87      -0.000023794798
 88      -0.000003302855
 89       0.000008818264
 90       0.000000300237
 91      -0.000000664309
 92      -0.000000412895
 93      -0.000000535476
 94      -0.000000341258
 95      -0.000001094028
 96       0.000000753351
 97       0.000001369798
 98       0.000000242137
 99      -0.000000469790
100       0.000000246329
101       0.000000325939
102       0.000000192410
103      -0.000000326198
104       0.000001146250
105       0.000001425127
106      -0.000000426176
107      -0.000001546954
108      -0.000002040480
109      -0.000001238077
110       0.000002018670
111      -0.000007169042
112      -0.000008940444
113       0.000002665779
114       0.000004327899
115       0.000005189147
116       0.000003537318
117      -0.000004786510
118       0.000018448760
119       0.000023330526
120      -0.000006812266
121      -0.000000164874
122       0.000000234140
123      -0.000000370688
124       0.000002750840
125       0.000005968091
126       0.000005270971
127       0.000002525310
128       0.000030478776
129      -0.000000259575
130      -0.000000380078
131      -0.000000278318
132       0.000001519653
133       0.000002226979
134       0.000001626827
135      -0.000000706107
136      -0.000001057333
137      -0.000000691386
138       0.000005432102
139       0.000010343707
140       0.000006506004
141      -0.000000625788
142       0.000000957363
143       0.000001402245
144      -0.000000072276
145       0.000000657407
146       0.000002020922
147      -0.000003923363
148      -0.000005636332
149       0.000000770975
150      -0.000003549622
151       0.000003496703
152      -0.000000551838
153      -0.000000861007
154       0.000002029248
155      -0.000004940099
156      -0.000003185674
157       0.000000730088
158      -0.000000155992
159       0.000000221553
160      -0.000000350443
161       0.000002594513
162       0.000005611365
163       0.000004926422
164       0.000002737566
165       0.000031132423
166      -0.000000240465
167       0.000000414760
168       0.000000174721
169       0.000001345558
170      -0.000002319858
171      -0.000000978694
172      -0.000001093014
173       0.000001763210
174       0.000000861712
175       0.000006734338
176      -0.000011028361
177      -0.000005150691
178      -0.000000900633
179      -0.000000032502
180       0.000001264877
181      -0.000000370374
182      -0.000001068464
183       0.000003173828
184       0.000000712751
185      -0.000004546848
186       0.000001841802
187       0.000004388421
188      -0.000003177288
189       0.000001093596
190      -0.000001276086
191      -0.000002364880
192      -0.000003607818
193      -0.000004391523
194      -0.000000307809
195      -0.000000159945
196       0.000000227134
197      -0.000000359408
198       0.000002663112
199       0.000005765584
200       0.000005067814
201       0.000002530801
202       0.000030248216
203       0.000000503637
204      -0.000000102829
205       0.000000125320
206      -0.000002888171
207       0.000000591343
208      -0.000000720506
209       0.000001615831
210      -0.000000380289
211       0.000000458151
212      -0.000012392662
213       0.000003998805
214      -0.000002850085
215      -0.000000982374
216       0.000000950457
217       0.000000508869
218       0.000001163814
219      -0.000000515626
220       0.000003738893
221      -0.000003684243
222      -0.000001204890
223      -0.000005151864
224       0.000002140328
225      -0.000002436704
226      -0.000003020798
227       0.000000880098
228       0.000003091786
229      -0.000000934859
230      -0.000003965677
231       0.000003057740
 Sym=     1a
 Ene= -2.87596636641258E+02
 Spin= Alpha
 Occup= 1.000000
  1      -0.000000000815
  2      -0.000000001804
  3       0.000000000696
  4      -0.000000012459
  5       0.000000014918
  6      -0.000000051093
  7       0.000000140108
  8      -0.000000178716
  9       0.000000314002
 10      -0.000000682681
 11       0.000001199885
 12      -0.000001967232
 13       0.000003213895
 14      -0.000004654890
 15       0.000003760666
 16      -0.000000463524
 17       0.000000134161
 18       0.000000000168
 19      -0.284847587057
 20      -0.130914782324
 21      -0.168399552444
 22      -0.383908155877
 23      -0.176442585156
 24      -0.226963344358
 25      -0.243228183109
 26      -0.111786697341
 27      -0.143794501331
 28      -0.012400125367
 29      -0.005698904919
 30      -0.007330854117
 31      -0.004489963975
 32      -0.002063837681
 33      -0.002654428805
 34       0.003097040921
 35       0.001423881446
 36       0.001830947872
 37      -0.001888433251
 38      -0.000868822790
 39      -0.001116441508
 40       0.001196811725
 41       0.000551683050
 42       0.000707602999
 43      -0.000776560237
 44      -0.000359065013
 45      -0.000459168452
 46       0.000447714624
 47       0.000206751727
 48       0.000264538658
 49      -0.000158586138
 50      -0.000072939457
 51      -0.000093820436
 52       0.000042293325
 53       0.000019381265
 54       0.000025040644
 55      -0.000000007186
 56       0.000000040879
 57      -0.000000119123
 58       0.000000177290
 59      -0.000000160851
 60       0.000000693614
 61       0.000000261449
 62       0.000001556605
 63      -0.000002030048
 64       0.000002201169
 65      -0.000001903651
 66      -0.000000632262
 67      -0.000004706627
 68       0.000006157131
 69      -0.000006825394
 70       0.000004553150
 71       0.000001559991
 72       0.000010993516
 73      -0.000014379128
 74       0.000015883427
 75      -0.000009450160
 76      -0.000003262593
 77      -0.000022808461
 78       0.000029810448
 79      -0.000032927142
 80       0.000016045243
 81       0.000005560244
 82       0.000038681989
 83      -0.000050542582
 84       0.000055791931
 85      -0.000012999783
 86      -0.000003913715
 87      -0.000029862434
 88       0.000039837826
 89      -0.000043554292
 90      -0.000001094605
 91      -0.000000272917
 92      -0.000002736508
 93       0.000003645463
 94      -0.000004053894
 95       0.000001664825
 96       0.000000491471
 97       0.000003884877
 98      -0.000005179703
 99       0.000005697763
100      -0.000001200687
101      -0.000000660081
102       0.000000213864
103      -0.000000453389
104       0.000000268921
105       0.000000341511
106       0.000001318428
107       0.000019899661
108       0.000007149434
109      -0.000005132759
110      -0.000000826833
111      -0.000012095316
112       0.000001642159
113      -0.000007963190
114      -0.000020565157
115      -0.000008409009
116       0.000006022321
117      -0.000001030954
118       0.000011564513
119      -0.000001313577
120       0.000011462338
121      -0.000000552453
122       0.000000783004
123      -0.000001276047
124       0.000009226402
125       0.000019014990
126       0.000013920186
127      -0.000015276132
128       0.000034473353
129      -0.000002319362
130      -0.000003703198
131      -0.000002570773
132       0.000014153576
133       0.000022097264
134       0.000015457924
135       0.000019081236
136       0.000027809334
137       0.000019984946
138       0.000017716225
139       0.000022048740
140       0.000016605294
141      -0.000001133220
142       0.000004824212
143       0.000007921473
144      -0.000003824007
145       0.000007447300
146       0.000005596055
147      -0.000022920363
148      -0.000035908447
149       0.000015797288
150      -0.000034070588
151       0.000013503571
152      -0.000002271555
153      -0.000004103691
154       0.000010551548
155      -0.000020436187
156      -0.000016349350
157       0.000000944589
158       0.000000048912
159      -0.000000069294
160       0.000000112829
161      -0.000000813392
162      -0.000001669132
163      -0.000001208200
164       0.000001279740
165      -0.000003523359
166       0.000000300649
167      -0.000000337997
168      -0.000000119693
169      -0.000001327202
170       0.000002158468
171       0.000000944939
172       0.000001169593
173       0.000003661934
174       0.000002647701
175      -0.000003140401
176       0.000002009122
177       0.000000292466
178       0.000000303570
179       0.000000268383
180      -0.000000353740
181       0.000000180772
182       0.000001127347
183      -0.000000789031
184      -0.000001087412
185       0.000002911482
186      -0.000002589458
187      -0.000003162652
188       0.000000733184
189      -0.000001912778
190       0.000002215004
191      -0.000002513428
192       0.000001442556
193       0.000002812254
194       0.000004895264
195       0.000000478402
196      -0.000000677837
197       0.000001103781
198      -0.000007958115
199      -0.000016326308
200      -0.000011768613
201       0.000013410602
202      -0.000032500669
203      -0.000004249697
204       0.000001065198
205      -0.000001018044
206       0.000025311002
207      -0.000006040721
208       0.000006215244
209       0.000031799911
210      -0.000006249724
211       0.000008452995
212       0.000028569308
213      -0.000004061799
214       0.000008396958
215       0.000004661828
216      -0.000003975839
217       0.000001364212
218      -0.000008287057
219       0.000004562421
220      -0.000020469150
221       0.000018759411
222      -0.000005393726
223       0.000037043645
224      -0.000018491043
225       0.000008606028
226       0.000012362278
227      -0.000003220766
228      -0.000009422740
229       0.000005929118
230       0.000014786905
231      -0.000015011666
 Sym=     1a
 Ene= -2.87594903003841E+02
 Spin= Alpha
 Occup= 1.000000
  1      -0.000000062456
  2      -0.000000079955
  3      -0.000000129708
  4      -0.000000311145
  5      -0.000000320816
  6      -0.000000313525
  7       0.000001413508
  8       0.000000502940
  9       0.000000978970
 10      -0.000002211248
 11       0.000003889405
 12      -0.000006215207
 13       0.000009697771
 14      -0.000012979941
 15       0.000009094666
 16       0.000000847928
 17      -0.000001974393
 18       0.000000946170
 19       0.190727048249
 20      -0.282117424063
 21      -0.103294855006
 22       0.257055847008
 23      -0.380228824581
 24      -0.139217519428
 25       0.162856876313
 26      -0.240892800394
 27      -0.088200789923
 28       0.008299687887
 29      -0.012276297051
 30      -0.004495011692
 31       0.003007408541
 32      -0.004449101282
 33      -0.001628719503
 34      -0.002074997108
 35       0.003070433882
 36       0.001123709825
 37       0.001266474826
 38      -0.001875442730
 39      -0.000685784590
 40      -0.000804439361
 41       0.001193634726
 42       0.000435526233
 43       0.000523454442
 44      -0.000779129906
 45      -0.000283308321
 46      -0.000302310538
 47       0.000449452739
 48       0.000163265706
 49       0.000105653889
 50      -0.000156283061
 51      -0.000057335025
 52      -0.000027729979
 53       0.000040813443
 54       0.000015107581
 55       0.000000118463
 56       0.000000030797
 57      -0.000000052006
 58       0.000000118147
 59       0.000000183367
 60       0.000000036524
 61       0.000001814739
 62      -0.000000591745
 63       0.000001791992
 64       0.000001849451
 65       0.000000036244
 66      -0.000005609068
 67       0.000001910816
 68      -0.000005218652
 69      -0.000005517662
 70       0.000000041286
 71       0.000013153782
 72      -0.000004488501
 73       0.000012425459
 74       0.000013101674
 75      -0.000000111032
 76      -0.000027250704
 77       0.000009289786
 78      -0.000025771149
 79      -0.000027180889
 80       0.000000305713
 81       0.000045902526
 82      -0.000015744288
 83       0.000043528357
 84       0.000045927444
 85      -0.000001319312
 86      -0.000035002493
 87       0.000013754320
 88      -0.000034204531
 89      -0.000036071789
 90       0.000000023590
 91      -0.000002926942
 92       0.000001070504
 93      -0.000002693884
 94      -0.000002835905
 95       0.000000071460
 96       0.000004726119
 97      -0.000001750449
 98       0.000004511889
 99       0.000004746513
100      -0.000000918008
101       0.000000487106
102      -0.000000453206
103      -0.000001180210
104      -0.000000456794
105      -0.000000489682
106      -0.000000827475
107       0.000012001457
108      -0.000011188744
109       0.000005009826
110       0.000018576628
111       0.000002777109
112       0.000001851395
113       0.000009346857
114      -0.000012497070
115       0.000011360966
116      -0.000005462483
117      -0.000018399731
118      -0.000004121561
119      -0.000003563018
120      -0.000009679964
121      -0.000000285500
122       0.000000404658
123      -0.000000659609
124       0.000004772558
125       0.000009846973
126       0.000007234659
127      -0.000008113204
128       0.000014438034
129      -0.000001430594
130      -0.000001780903
131      -0.000001327803
132       0.000008206196
133       0.000011008753
134       0.000008045200
135       0.000008870147
136       0.000016027867
137       0.000010960334
138       0.000007863685
139       0.000011523210
140       0.000008107401
141      -0.000000457709
142       0.000003042342
143       0.000003471642
144      -0.000001095080
145       0.000004303597
146       0.000002504237
147      -0.000012896390
148      -0.000017408613
149       0.000006902028
150      -0.000018449936
151       0.000006822102
152      -0.000001836316
153      -0.000001257340
154       0.000000614232
155      -0.000012160802
156      -0.000007381385
157       0.000006098851
158       0.000000580276
159      -0.000000822003
160       0.000001337897
161      -0.000009629039
162      -0.000019699959
163      -0.000014074627
164       0.000016406333
165      -0.000039285695
166       0.000002642733
167      -0.000004467079
168      -0.000001986124
169      -0.000015661530
170       0.000026413371
171       0.000011710899
172      -0.000019723378
173       0.000032880179
174       0.000014379935
175      -0.000017741036
176       0.000030471434
177       0.000013649170
178       0.000004047567
179       0.000004550444
180      -0.000006562547
181       0.000005377261
182       0.000009364799
183      -0.000018153373
184      -0.000019156658
185       0.000029027668
186      -0.000022885915
187      -0.000040794042
188       0.000014471132
189      -0.000003208945
190       0.000005967602
191       0.000010012236
192       0.000018444589
193       0.000022272628
194       0.000000316161
195      -0.000000361019
196       0.000000511528
197      -0.000000833095
198       0.000006009229
199       0.000012336809
200       0.000008910156
201      -0.000010450777
202       0.000020602946
203       0.000003247172
204      -0.000000574685
205       0.000000912165