[Molden Format]
[Title]
 Molden file created by orca_2mkl for BaseName=/home/smirnovaanastasia2304_2125/_scratch/HERBD/Sm_OH_cc

[Atoms] AU
Sm   1  62         -0.2851899092         0.3901679754        -0.4808200278 
O    2   8         -1.9746428675         3.9299538366        -0.1988426530 
O    3   8         -1.8429743094        -2.6207893655        -2.4550830603 
O    4   8          3.0821130888        -0.2059536924         1.4330057835 
H    5   1          4.5965509509        -0.6157974964         2.3378671277 
H    6   1         -2.6145230337         5.6084671703         0.0334746087 
H    7   1         -2.7213870466        -3.9107844547        -3.3730250888 
[GTO]
  1 0
s   6 1.0 
  1062932.5401760000      2015.4033414015
   472414.4623000000      -530.2484535570
   209961.9832450000      1184.0193668322
    93316.4369980000       281.7673601451
    41473.9719990000       732.4402389394
    18432.8764440000       565.1951099566
s   1 1.0 
     8192.3895310000       613.7168364017
s   1 1.0 
     3641.0620140000       334.0651324018
s   1 1.0 
     1618.2497840000       181.8420256088
s   1 1.0 
      719.2221260000        98.9822614294
s   1 1.0 
      319.6542780000        53.8791186583
s   1 1.0 
      142.0685680000        29.3280774453
s   1 1.0 
       63.1415860000        15.9641833483
s   1 1.0 
       28.0629270000         8.6898007217
s   1 1.0 
       12.4724120000         4.7301283855
s   1 1.0 
        5.5432940000         2.5747556920
s   1 1.0 
        2.4636860000         1.4015193847
s   1 1.0 
        1.0949720000         0.7628907560
s   1 1.0 
        0.4866540000         0.4152649871
s   1 1.0 
        0.2162910000         0.2260418893
s   1 1.0 
        0.0961290000         0.1230412999
s   1 1.0 
        0.0427240000         0.0669752004
s   1 1.0 
        0.0189880000         0.0364560415
p   5 1.0 
    14404.1721250000      2744.8949604333
     5761.6688500000      1139.8678591343
     2304.6675400000      1806.9940214775
      921.8670160000      1796.2052381751
      368.7468060000      1716.9611649775
p   1 1.0 
      147.4987230000       732.6986870548
p   1 1.0 
       58.9994890000       233.0775265407
p   1 1.0 
       23.5997960000        74.1438953273
p   1 1.0 
        9.4399180000        23.5857866190
p   1 1.0 
        3.7759670000         7.5028337885
p   1 1.0 
        1.5103870000         2.3867140330
p   1 1.0 
        0.6041550000         0.7592338375
p   1 1.0 
        0.2416620000         0.2415185789
p   1 1.0 
        0.0966650000         0.0768292612
p   1 1.0 
        0.0386660000         0.0244400250
p   1 1.0 
        0.0154660000         0.0077743233
d   4 1.0 
     1004.1583960000      4186.2867605126
      365.1485080000      4040.4728439300
      132.7812750000      3762.5495192093
       48.2841000000      2011.2515485290
d   1 1.0 
       17.5578550000       429.3338542770
d   1 1.0 
        6.3846740000        73.1076554091
d   1 1.0 
        2.3217000000        12.4488937692
d   1 1.0 
        0.8442540000         2.1198154627
d   1 1.0 
        0.3070020000         0.3609667439
d   1 1.0 
        0.1116370000         0.0614659161
d   1 1.0 
        0.0405950000         0.0104663930
d   1 1.0 
        0.0147620000         0.0017822728
f   4 1.0 
       27.1800850000       996.9794071247
        9.0600280000       272.9712358672
        3.0200090000        35.7157423366
        1.0066700000         2.1818001987
f   1 1.0 
        0.3355570000         0.4886233996
f   1 1.0 
        0.1118520000         0.0412523340

  2 0
s   6 1.0 
    27032.3826310000         1.4645050749
     4052.3871392000         1.8244031008
      922.3272271000         2.8547160967
      261.2407098900         4.3654874290
       85.3546413500         5.8940772662
       31.0350352400         6.2963020147
s   1 1.0 
       12.2608607300         4.6698272139
s   1 1.0 
        4.9987076000         2.3826123703
s   1 1.0 
        1.1703108200         0.8019291632
s   1 1.0 
        0.4647474100        -0.4011648063
s   1 1.0 
        0.1850453600         0.2010799377
p   4 1.0 
       63.2749548000         3.0898340730
       14.6270493800         3.3923831935
        4.4501223500         2.9482801524
        1.5275799600         1.7113350234
p   1 1.0 
        0.5293511800         0.6436057935
p   1 1.0 
        0.1747842100         0.1610897223
d   1 1.0 
        2.3140000000        12.3767310624
d   1 1.0 
        0.6450000000         1.3234257612
f   1 1.0 
        1.4280000000        12.7097950062

  3 0
s   6 1.0 
    27032.3826310000         1.4645050749
     4052.3871392000         1.8244031008
      922.3272271000         2.8547160967
      261.2407098900         4.3654874290
       85.3546413500         5.8940772662
       31.0350352400         6.2963020147
s   1 1.0 
       12.2608607300         4.6698272139
s   1 1.0 
        4.9987076000         2.3826123703
s   1 1.0 
        1.1703108200         0.8019291632
s   1 1.0 
        0.4647474100        -0.4011648063
s   1 1.0 
        0.1850453600         0.2010799377
p   4 1.0 
       63.2749548000         3.0898340730
       14.6270493800         3.3923831935
        4.4501223500         2.9482801524
        1.5275799600         1.7113350234
p   1 1.0 
        0.5293511800         0.6436057935
p   1 1.0 
        0.1747842100         0.1610897223
d   1 1.0 
        2.3140000000        12.3767310624
d   1 1.0 
        0.6450000000         1.3234257612
f   1 1.0 
        1.4280000000        12.7097950062

  4 0
s   6 1.0 
    27032.3826310000         1.4645050749
     4052.3871392000         1.8244031008
      922.3272271000         2.8547160967
      261.2407098900         4.3654874290
       85.3546413500         5.8940772662
       31.0350352400         6.2963020147
s   1 1.0 
       12.2608607300         4.6698272139
s   1 1.0 
        4.9987076000         2.3826123703
s   1 1.0 
        1.1703108200         0.8019291632
s   1 1.0 
        0.4647474100        -0.4011648063
s   1 1.0 
        0.1850453600         0.2010799377
p   4 1.0 
       63.2749548000         3.0898340730
       14.6270493800         3.3923831935
        4.4501223500         2.9482801524
        1.5275799600         1.7113350234
p   1 1.0 
        0.5293511800         0.6436057935
p   1 1.0 
        0.1747842100         0.1610897223
d   1 1.0 
        2.3140000000        12.3767310624
d   1 1.0 
        0.6450000000         1.3234257612
f   1 1.0 
        1.4280000000        12.7097950062

  5 0
s   3 1.0 
       34.0613410000         0.2556300129
        5.1235746000         0.4613599287
        1.1646626000         0.6811215012
s   1 1.0 
        0.3272304100         0.3083545312
s   1 1.0 
        0.1030724100         0.1296483265
p   1 1.0 
        0.8000000000         1.0784563492

  6 0
s   3 1.0 
       34.0613410000         0.2556300129
        5.1235746000         0.4613599287
        1.1646626000         0.6811215012
s   1 1.0 
        0.3272304100         0.3083545312
s   1 1.0 
        0.1030724100         0.1296483265
p   1 1.0 
        0.8000000000         1.0784563492

  7 0
s   3 1.0 
       34.0613410000         0.2556300129
        5.1235746000         0.4613599287
        1.1646626000         0.6811215012
s   1 1.0 
        0.3272304100         0.3083545312
s   1 1.0 
        0.1030724100         0.1296483265
p   1 1.0 
        0.8000000000         1.0784563492

[5D]
[7F]
[9G]
[MO]
 Sym=     1a
 Ene= -1.72759379262287E+03
 Spin= Alpha
 Occup= 1.000000
  1      -0.083754238745
  2      -0.095681045458
  3      -0.172393911597
  4      -0.299419905944
  5      -0.343686616673
  6      -0.174637240790
  7      -0.010623299057
  8      -0.003175137147
  9       0.002311465568
 10      -0.001524404615
 11       0.001030491320
 12      -0.000696548695
 13       0.000469609553
 14      -0.000324070260
 15       0.000228406655
 16      -0.000144022987
 17       0.000039638865
 18      -0.000010389147
 19       0.000000012782
 20      -0.000000011980
 21       0.000000040304
 22      -0.000000013865
 23       0.000000015158
 24      -0.000000038868
 25       0.000000008205
 26      -0.000000010891
 27       0.000000031319
 28      -0.000000007145
 29       0.000000012691
 30      -0.000000036483
 31       0.000000007711
 32      -0.000000017815
 33       0.000000051908
 34      -0.000000009787
 35       0.000000028193
 36      -0.000000082980
 37       0.000000017363
 38      -0.000000051449
 39       0.000000147846
 40      -0.000000033336
 41       0.000000101933
 42      -0.000000269355
 43       0.000000016794
 44      -0.000000143200
 45       0.000000418824
 46       0.000000024041
 47      -0.000000019251
 48      -0.000000739337
 49      -0.000000004809
 50       0.000000028193
 51       0.000000070200
 52      -0.000000006838
 53      -0.000000004374
 54      -0.000000015776
 55       0.000000129926
 56      -0.000000061878
 57      -0.000000160945
 58       0.000000197683
 59       0.000000038865
 60      -0.000000250633
 61       0.000000262352
 62       0.000000250596
 63      -0.000000199569
 64      -0.000000104326
 65       0.000000471274
 66      -0.000000596205
 67      -0.000000428694
 68       0.000000245823
 69       0.000000216550
 70      -0.000000926709
 71       0.000001246266
 72       0.000000811784
 73      -0.000000388970
 74      -0.000000441202
 75       0.000001910716
 76      -0.000002611159
 77      -0.000001658335
 78       0.000000750939
 79       0.000000916296
 80      -0.000003458373
 81       0.000004757398
 82       0.000003000083
 83      -0.000001334809
 84      -0.000001652652
 85       0.000007003075
 86      -0.000009627029
 87      -0.000005976620
 88       0.000002654159
 89       0.000003433165
 90      -0.000000057562
 91       0.000000000105
 92       0.000000075185
 93      -0.000000127865
 94      -0.000000016951
 95      -0.000000043416
 96       0.000000075988
 97       0.000000031393
 98       0.000000007662
 99      -0.000000023828
100       0.000000029640
101      -0.000000079504
102       0.000000191924
103      -0.000000274758
104       0.000000271298
105       0.000000479494
106      -0.000000113437
107      -0.000000200912
108       0.000000532002
109      -0.000001296501
110       0.000001861453
111      -0.000001843764
112      -0.000003240757
113       0.000000776158
114       0.000000580401
115      -0.000001241616
116       0.000003425187
117      -0.000004477990
118       0.000004962472
119       0.000008237665
120      -0.000002446257
121      -0.000000159446
122       0.000000739267
123      -0.000001400505
124       0.000004209538
125       0.000008162995
126       0.000022329451
127       0.000000334269
128      -0.000000728020
129      -0.000000067207
130      -0.000002188270
131       0.000004867945
132       0.000000475768
133       0.000001643775
134      -0.000002708743
135      -0.000000060380
136      -0.000000120502
137       0.000000088919
138       0.000000062851
139      -0.000000072921
140      -0.000000112049
141       0.000000790567
142      -0.000000212836
143      -0.000000195476
144       0.000000616452
145       0.000001000276
146      -0.000000056563
147       0.000000056311
148      -0.000000149950
149      -0.000000043737
150      -0.000000060073
151      -0.000000204309
152       0.000000112394
153      -0.000000154648
154       0.000000717373
155      -0.000001360313
156       0.000004103705
157       0.000007957233
158       0.000022149185
159       0.000000295408
160       0.000000635122
161       0.000000395551
162      -0.000002196639
163      -0.000004212046
164      -0.000002730788
165       0.000000158013
166       0.000002837847
167       0.000001152426
168      -0.000000078809
169       0.000000101462
170       0.000000119885
171      -0.000000084807
172      -0.000000003951
173       0.000000325988
174      -0.000000504499
175      -0.000000954723
176       0.000000690310
177      -0.000000389818
178       0.000000116663
179      -0.000000017036
180      -0.000000038060
181       0.000000087490
182      -0.000000191806
183      -0.000000148530
184       0.000000030211
185      -0.000000151130
186       0.000000701366
187      -0.000001331282
188       0.000004039544
189       0.000007902892
190       0.000022034396
191      -0.000000675169
192       0.000000115694
193      -0.000000386904
194       0.000004677584
195      -0.000000901388
196       0.000002704381
197      -0.000002509820
198      -0.000000184344
199      -0.000001483025
200      -0.000000075459
201       0.000000134067
202       0.000000052404
203       0.000000032390
204      -0.000000031942
205       0.000000341802
206      -0.000000995932
207      -0.000000092373
208      -0.000000676310
209       0.000000190580
210      -0.000000113495
211       0.000000035585
212      -0.000000018796
213       0.000000165787
214      -0.000000110705
215      -0.000000110129
216       0.000000101762
217       0.000000329650
218      -0.000004964154
219       0.000000303742
220       0.000001312969
221      -0.000000236347
222       0.000000773403
223       0.000000376007
224      -0.000004670753
225       0.000000211671
226      -0.000000595583
227       0.000001303245
228       0.000000126456
229       0.000000347360
230      -0.000004986995
231       0.000000216270
232      -0.000000582145
233      -0.000001205747
234      -0.000000747568
 Sym=     1a
 Ene= -2.87013977895546E+02
 Spin= Alpha
 Occup= 1.000000
  1       0.030995087049
  2       0.038937635132
  3       0.071243460087
  4       0.145978222199
  5       0.206181004880
  6       0.090528443932
  7      -0.459954030651
  8      -0.609613448974
  9      -0.104106962894
 10      -0.003889277990
 11       0.003377818317
 12      -0.002427294345
 13       0.001797592291
 14      -0.001293076051
 15       0.000920198463
 16      -0.000582515428
 17       0.000160481432
 18      -0.000042124275
 19      -0.000000137544
 20       0.000000289837
 21      -0.000000178812
 22      -0.000000201622
 23       0.000000401427
 24      -0.000000220691
 25      -0.000000130515
 26       0.000000291366
 27      -0.000000093137
 28       0.000000121282
 29      -0.000000017398
 30       0.000000086749
 31      -0.000000031262
 32      -0.000000017975
 33       0.000000091364
 34      -0.000000008797
 35       0.000000092835
 36      -0.000000284621
 37       0.000000048155
 38      -0.000000193516
 39       0.000000559308
 40      -0.000000121658
 41       0.000000410502
 42      -0.000001071899
 43       0.000000080492
 44      -0.000000602994
 45       0.000001720148
 46       0.000000070590
 47      -0.000000074165
 48      -0.000003012869
 49      -0.000000010891
 50       0.000000115494
 51       0.000000288643
 52      -0.000000029891
 53      -0.000000017875
 54      -0.000000064477
 55       0.000015548316
 56      -0.000004976940
 57      -0.000020298610
 58       0.000026774943
 59       0.000004143623
 60      -0.000000721232
 61       0.000000644831
 62       0.000000776957
 63      -0.000000739000
 64      -0.000000266137
 65       0.000001182585
 66      -0.000001910359
 67      -0.000000895763
 68       0.000000083453
 69       0.000000633923
 70      -0.000003508432
 71       0.000004743478
 72       0.000003062738
 73      -0.000001443167
 74      -0.000001674696
 75       0.000007844683
 76      -0.000010727804
 77      -0.000006805564
 78       0.000003072258
 79       0.000003763362
 80      -0.000014334537
 81       0.000019725738
 82       0.000012433320
 83      -0.000005520121
 84      -0.000006850658
 85       0.000028446548
 86      -0.000039128393
 87      -0.000024266921
 88       0.000010750791
 89       0.000013950836
 90      -0.000000220958
 91      -0.000000016324
 92       0.000000293535
 93      -0.000000513630
 94      -0.000000063382
 95      -0.000000181402
 96       0.000000315504
 97       0.000000131989
 98       0.000000029038
 99      -0.000000099070
100       0.000000095563
101      -0.000000349556
102       0.000000871903
103      -0.000001170357
104       0.000001218619
105       0.000002133475
106      -0.000000506239
107      -0.000000839600
108       0.000002254924
109      -0.000005499335
110       0.000007876548
111      -0.000007815750
112      -0.000013735697
113       0.000003285500
114       0.000002367318
115      -0.000005071226
116       0.000013983078
117      -0.000018286411
118       0.000020258594
119       0.000033634474
120      -0.000009980491
121      -0.000000568285
122       0.000002829328
123      -0.000005628289
124       0.000017380148
125       0.000033439532
126       0.000090377538
127       0.000001408326
128      -0.000003060575
129      -0.000000280771
130      -0.000008884857
131       0.000019740561
132       0.000001922368
133       0.000006570483
134      -0.000010802862
135      -0.000000236017
136      -0.000000555824
137       0.000000345646
138       0.000000270080
139      -0.000000376451
140      -0.000000547497
141       0.000003450912
142      -0.000000822869
143      -0.000000862280
144       0.000002794569
145       0.000004380422
146      -0.000000236639
147       0.000000253562
148      -0.000000659435
149      -0.000000177251
150      -0.000000256210
151      -0.000000906570
152       0.000000468476
153      -0.000000552041
154       0.000002748033
155      -0.000005472895
156       0.000016957191
157       0.000032604497
158       0.000089651260
159       0.000001242407
160       0.000002673432
161       0.000001665113
162      -0.000008889558
163      -0.000017112673
164      -0.000011080044
165       0.000000530613
166       0.000011355000
167       0.000004555135
168      -0.000000333601
169       0.000000454942
170       0.000000580104
171      -0.000000398448
172       0.000000063233
173       0.000001380754
174      -0.000002216924
175      -0.000004206752
176       0.000002985658
177      -0.000001857672
178       0.000000513206
179      -0.000000072134
180      -0.000000168404
181       0.000000406538
182      -0.000000830892
183      -0.000000657549
184       0.000000107017
185      -0.000000539669
186       0.000002687522
187      -0.000005357997
188       0.000016697745
189       0.000032396530
190       0.000089239750
191      -0.000002841841
192       0.000000485096
193      -0.000001627712
194       0.000018987275
195      -0.000003641712
196       0.000010973466
197      -0.000010012220
198      -0.000000784277
199      -0.000005921724
200      -0.000000321616
201       0.000000642705
202       0.000000189959
203       0.000000220845
204      -0.000000160756
205       0.000001449902
206      -0.000004400058
207      -0.000000298736
208      -0.000003050935
209       0.000000894412
210      -0.000000501149
211       0.000000153981
212      -0.000000080873
213       0.000000741755
214      -0.000000470844
215      -0.000000500767
216       0.000000434028
217       0.000001469430
218      -0.000019945469
219       0.000001160744
220       0.000005196897
221      -0.000000915821
222       0.000003058897
223       0.000001661953
224      -0.000018739427
225       0.000000785577
226      -0.000002362400
227       0.000005131854
228       0.000000488272
229       0.000001543290
230      -0.000020044657
231       0.000000805858
232      -0.000002273311
233      -0.000004787954
234      -0.000002951055
 Sym=     1a
 Ene= -2.56365807925687E+02
 Spin= Alpha
 Occup= 1.000000
  1       0.000000021600
  2       0.000000027066
  3       0.000000050145
  4       0.000000100961
  5       0.000000148389
  6       0.000000051796
  7      -0.000000324026
  8      -0.000000408375
  9      -0.000000076766
 10      -0.000000045721
 11       0.000000111193
 12      -0.000000194057
 13       0.000000497588
 14      -0.000001415458
 15       0.000002817959
 16      -0.000001176337
 17      -0.000001027267
 18      -0.000000105109
 19       0.013700893085
 20      -0.333819884840
 21      -0.110704865983
 22       0.018665536372
 23      -0.454781930622
 24      -0.150819567116
 25       0.011938730954
 26      -0.290885451642
 27      -0.096466490812
 28       0.000653682846
 29      -0.015923446115
 30      -0.005280684818
 31       0.000214398657
 32      -0.005229692365
 33      -0.001734351217
 34      -0.000148876145
 35       0.003638097974
 36       0.001206552392
 37       0.000091010194
 38      -0.002237138559
 39      -0.000741991376
 40      -0.000059122239
 41       0.001475052733
 42       0.000489286428
 43       0.000040276103
 44      -0.001023303120
 45      -0.000338952201
 46      -0.000007935276
 47       0.000255764777
 48       0.000083499641
 49       0.000004775486
 50      -0.000133987193
 51      -0.000044223972
 52      -0.000001055192
 53       0.000034279949
 54       0.000011526660
 55      -0.000000110936
 56      -0.000000055553
 57      -0.000000100279
 58      -0.000000086463
 59      -0.000000182985
 60       0.000001139069
 61       0.000001263565
 62       0.000001490158
 63       0.000000747549
 64       0.000003481127
 65      -0.000003425668
 66      -0.000004029279
 67      -0.000004650341
 68      -0.000002257768
 69      -0.000010837940
 70       0.000008182720
 71       0.000009608151
 72       0.000011099990
 73       0.000005415366
 74       0.000025806970
 75      -0.000018223134
 76      -0.000021447489
 77      -0.000024836356
 78      -0.000012020742
 79      -0.000057542491
 80       0.000035601466
 81       0.000042411525
 82       0.000048329018
 83       0.000024144707
 84       0.000112361378
 85       0.000019010558
 86       0.000011229061
 87       0.000038239293
 88      -0.000008527741
 89       0.000063541374
 90      -0.000004667043
 91      -0.000003379987
 92      -0.000010278044
 93       0.000002439883
 94      -0.000016760900
 95       0.000003268802
 96       0.000003440990
 97       0.000005003264
 98       0.000001271162
 99       0.000010495536
100      -0.000002242176
101       0.000001575875
102      -0.000001735343
103      -0.000001893318
104       0.000002495025
105      -0.000001164220
106       0.000000407415
107       0.000026742366
108      -0.000016136645
109       0.000021040189
110       0.000026368888
111      -0.000024565117
112       0.000012951432
113      -0.000012862948
114      -0.000002100442
115      -0.000000831261
116      -0.000001710605
117      -0.000003956583
118       0.000000591136
119       0.000001485825
120       0.000003515172
121       0.000000107763
122      -0.000000748837
123       0.000002292113
124      -0.000007442449
125       0.000045339322
126       0.000039666551
127      -0.000006175072
128       0.000010353281
129       0.000000105094
130       0.000042026815
131      -0.000086098639
132      -0.000006390598
133       0.000087301284
134      -0.000240219492
135      -0.000035592280
136       0.000001691534
137      -0.000000153670
138       0.000001064524
139       0.000000200666
140       0.000003555343
141      -0.000008915051
142       0.000000923524
143      -0.000005479949
144      -0.000001141590
145      -0.000018500401
146       0.000001211779
147      -0.000002547697
148       0.000005426060
149       0.000001562896
150       0.000000854879
151       0.000007273297
152      -0.000002038639
153      -0.000000048023
154       0.000000450676
155      -0.000001733687
156       0.000006761130
157      -0.000044468260
158      -0.000053675508
159       0.000004695727
160       0.000008592220
161       0.000005954113
162      -0.000040151204
163      -0.000069180606
164      -0.000047596579
165      -0.000106737749
166      -0.000185219361
167      -0.000122225772
168       0.000000049676
169       0.000001038588
170       0.000001926340
171      -0.000000819896
172       0.000001589131
173       0.000000593739
174      -0.000004918110
175      -0.000011808438
176       0.000007149206
177      -0.000007893660
178       0.000004068688
179      -0.000001030782
180      -0.000001374628
181       0.000001954639
182      -0.000006618667
183      -0.000004406187
184       0.000001515431
185      -0.000000016741
186       0.000000088487
187      -0.000000187778
188       0.000000354913
189      -0.000000406201
190       0.000014152415
191      -0.000000274289
192      -0.000000946337
193      -0.000000479296
194       0.000002755770
195       0.000002248007
196       0.000002528433
197       0.000007687629
198      -0.000012163823
199       0.000001088739
200       0.000000589746
201       0.000000856925
202       0.000001201153
203       0.000000325559
204       0.000002048471
205      -0.000002757008
206      -0.000003154693
207      -0.000004987645
208      -0.000001347562
209      -0.000008961294
210      -0.000000388386
211       0.000000878513
212      -0.000000012701
213       0.000000984629
214       0.000001211623
215      -0.000000636123
216      -0.000001306421
217      -0.000000153611
218      -0.000009784448
219      -0.000005470641
220       0.000002227137
221       0.000004269657
222       0.000003073779
223      -0.000007267820
224       0.000185994339
225       0.000068587412
226       0.000019013660
227      -0.000041625364
228      -0.000003932192
229       0.000007371051
230      -0.000174299610
231      -0.000061510854
232      -0.000022984097
233      -0.000028644256
234      -0.000022434395
 Sym=     1a
 Ene= -2.56358369135698E+02
 Spin= Alpha
 Occup= 1.000000
  1       0.000000014433
  2       0.000000015863
  3       0.000000040047
  4       0.000000042894
  5       0.000000153531
  6      -0.000000106825
  7       0.000000134486
  8      -0.000000531214
  9       0.000000269235
 10      -0.000001580521
 11       0.000002871599
 12      -0.000004501343
 13       0.000007154977
 14      -0.000009480724
 15      -0.000007596912
 16       0.000049061310
 17      -0.000009815826
 18       0.000002969237
 19       0.304033164361
 20      -0.044455051379
 21       0.171677357717
 22       0.414204612830
 23      -0.060564096711
 24       0.233887474532
 25       0.264906172499
 26      -0.038733985676
 27       0.149583670357
 28       0.014486780168
 29      -0.002118326252
 30       0.008180094883
 31       0.004768900952
 32      -0.000697124464
 33       0.002693018622
 34      -0.003311403426
 35       0.000483871330
 36      -0.001870160987
 37       0.002033637749
 38      -0.000296776594
 39       0.001148913051
 40      -0.001334998336
 41       0.000193924672
 42      -0.000754982110
 43       0.000919506149
 44      -0.000131825819
 45       0.000521629144
 46      -0.000242707308
 47       0.000046700683
 48      -0.000136628631
 49       0.000124971946
 50      -0.000020871242
 51       0.000070511688
 52      -0.000032934180
 53       0.000005800951
 54      -0.000018340819
 55       0.000000023336
 56      -0.000000183453
 57      -0.000000022708
 58      -0.000000180105
 59      -0.000000052666
 60       0.000000604869
 61       0.000001652013
 62      -0.000001868655
 63       0.000003490342
 64      -0.000000653747
 65      -0.000001388984
 66      -0.000006255987
 67       0.000005556144
 68      -0.000010937924
 69       0.000002502114
 70       0.000003428151
 71       0.000014589736
 72      -0.000013395739
 73       0.000026121476
 74      -0.000005925667
 75      -0.000007531164
 76      -0.000032688453
 77       0.000029836751
 78      -0.000058302724
 79       0.000013283551
 80       0.000014285153
 81       0.000063791176
 82      -0.000058590900
 83       0.000113610315
 84      -0.000027036045
 85       0.000003675465
 86       0.000040078218
 87      -0.000019631402
 88       0.000063607807
 89       0.000001151443
 90      -0.000001934734
 91      -0.000010775966
 92       0.000006151603
 93      -0.000018111037
 94      -0.000000302674
 95       0.000001176784
 96       0.000006126613
 97      -0.000004905749
 98       0.000010628775
 99      -0.000001820569
100       0.000005357453
101      -0.000000483322
102      -0.000001862075
103      -0.000005427842
104      -0.000000078942
105       0.000000432261
106      -0.000002042551
107      -0.000036656132
108       0.000001369838
109       0.000016932752
110       0.000030963617
111       0.000005507345
112       0.000007477832
113       0.000012878337
114       0.000001584465
115      -0.000001829703
116      -0.000002441038
117      -0.000002327890
118      -0.000003081532
119      -0.000005499081
120       0.000002854968
121       0.000000214346
122      -0.000001184844
123       0.000002735702
124      -0.000008966865
125       0.000010706912
126       0.000016954805
127      -0.000002132798
128       0.000005911991
129       0.000000911602
130       0.000017725939
131      -0.000043512034
132      -0.000005380147
133       0.000048415369
134      -0.000099750570
135      -0.000007511633
136       0.000000725651
137       0.000000743428
138      -0.000001217119
139       0.000002274448
140       0.000000160374
141      -0.000004758690
142      -0.000002654424
143       0.000004863454
144      -0.000010350458
145      -0.000003509789
146       0.000001618550
147      -0.000000424880
148       0.000002272964
149       0.000001385594
150       0.000001363100
151       0.000002711446
152      -0.000003142564
153       0.000000132776
154      -0.000000778790
155       0.000001965100
156      -0.000005958592
157       0.000021096071
158       0.000010028276
159      -0.000001617679
160      -0.000006178617
161      -0.000003198701
162       0.000020204536
163       0.000044157495
164       0.000027127081
165       0.000077558465
166       0.000094968063
167       0.000075405435
168       0.000000730176
169       0.000000945053
170      -0.000001496625
171       0.000002942957
172       0.000000126523
173      -0.000003350317
174      -0.000004113026
175       0.000007728035
176      -0.000014224011
177      -0.000000413334
178      -0.000002794623
179       0.000000172470
180       0.000000048707
181      -0.000002868522
182       0.000002970450
183       0.000002651318
184       0.000001180240
185      -0.000000094011
186       0.000000710831
187      -0.000002362609
188       0.000008454252
189      -0.000051774187
190      -0.000062927577