[Molden Format]
[Title]
 Molden file created by orca_2mkl for BaseName=/home/smirnovaanastasia2304_2125/_scratch/HERBD/Pr_Cl_cc

[Atoms] AU
Pr   1  59          0.2081174289         0.4065103270        -0.5953582185 
Cl   2  17         -1.6621955485        -2.6017976179        -3.8284131822 
Cl   3  17         -1.8724559268         4.6386238135         0.3663177419 
Cl   4  17          4.8931226806        -0.2278575080         0.2201379768 
[GTO]
  1 0
s   6 1.0 
   961538.7552820001      1791.2119698187
   427350.5579030000      -464.6976799751
   189933.5812900000      1059.7453352467
    84414.9250180000       265.3867821965
    37517.7444520000       670.9029254951
    16674.5530900000       532.5812088880
s   1 1.0 
     7410.9124840000       569.2641778037
s   1 1.0 
     3293.7388820000       309.8681698966
s   1 1.0 
     1463.8839480000       168.6708675443
s   1 1.0 
      650.6150880000        91.8127911014
s   1 1.0 
      289.1622610000        49.9765533033
s   1 1.0 
      128.5165610000        27.2037900206
s   1 1.0 
       57.1184710000        14.8078675854
s   1 1.0 
       25.3859870000         8.0603821431
s   1 1.0 
       11.2826610000         4.3875163396
s   1 1.0 
        5.0145160000         2.3882613934
s   1 1.0 
        2.2286740000         1.3000049386
s   1 1.0 
        0.9905220000         0.7076331774
s   1 1.0 
        0.4402320000         0.3851867133
s   1 1.0 
        0.1956590000         0.2096693575
s   1 1.0 
        0.0869590000         0.1141289955
s   1 1.0 
        0.0386490000         0.0621246262
s   1 1.0 
        0.0171770000         0.0338158711
p   5 1.0 
    12926.8771060000      2243.4411625356
     5170.7508420000       970.3267113047
     2068.3003370000      1541.0095733413
      827.3201350000      1562.6929899323
      330.9280540000      1504.3140347474
p   1 1.0 
      132.3712220000       640.0030748661
p   1 1.0 
       52.9484890000       203.5902856660
p   1 1.0 
       21.1793950000        64.7637556472
p   1 1.0 
        8.4717580000        20.6018876605
p   1 1.0 
        3.3887030000         6.5536308020
p   1 1.0 
        1.3554810000         2.0847639131
p   1 1.0 
        0.5421930000         0.6631816039
p   1 1.0 
        0.2168770000         0.2109633238
p   1 1.0 
        0.0867510000         0.0671093759
p   1 1.0 
        0.0347000000         0.0213477413
p   1 1.0 
        0.0138800000         0.0067908935
d   4 1.0 
      877.6091640000      3337.5212855414
      319.1306050000      3244.8563107122
      116.0474930000      3005.5140400133
       42.1990880000      1583.5704970499
d   1 1.0 
       15.3451230000       339.1706298333
d   1 1.0 
        5.5800450000        57.7545309127
d   1 1.0 
        2.0291070000         9.8345330570
d   1 1.0 
        0.7378570000         1.6746399082
d   1 1.0 
        0.2683120000         0.2851610810
d   1 1.0 
        0.0975680000         0.0485576922
d   1 1.0 
        0.0354790000         0.0082683715
d   1 1.0 
        0.0129020000         0.0014080559
f   4 1.0 
       20.9298010000       586.8186602000
        6.9766000000       151.0188164213
        2.3255330000        19.5194371871
        0.7751780000         1.2419682566
f   1 1.0 
        0.2583930000         0.2714136926
f   1 1.0 
        0.0861310000         0.0229144232

  2 0
s   7 1.0 
    69507.9909450000         4.1142286333
    10426.1568800000         4.2286655222
     2373.2334061000         5.8493829067
      671.5642007100         8.3358677251
      218.4199979000        10.0089622684
       77.5722497100         8.2783277553
       28.8888152800         2.9822029766
s   1 1.0 
      127.1052718500        26.9794296956
s   1 1.0 
       39.3395829600        11.1952141621
s   1 1.0 
        7.6740680000         3.2860890225
s   1 1.0 
        3.8745627600        -1.9682357562
s   1 1.0 
        1.8385832600         1.1253110111
s   1 1.0 
        0.5022905800        -0.4252324193
s   1 1.0 
        0.1796272300         0.1966478587
p   6 1.0 
      666.5042328400        13.1758105786
      157.6424169000        16.0544655669
       50.2625209800        17.4320614645
       18.5360781100        14.3789566857
        7.2940532800         7.6571902731
        2.9433249000         1.9874071930
p   1 1.0 
        1.0404970800         1.4979287975
p   1 1.0 
        0.3845641500        -0.4316692201
p   1 1.0 
        0.1306964300         0.1120133392
d   2 1.0 
        4.6100000000         7.5524217504
        1.0110000000         2.6539585854
d   1 1.0 
        0.3390000000         0.4293579962
f   1 1.0 
        0.7060000000         2.6050175686

  3 0
s   7 1.0 
    69507.9909450000         4.1142286333
    10426.1568800000         4.2286655222
     2373.2334061000         5.8493829067
      671.5642007100         8.3358677251
      218.4199979000        10.0089622684
       77.5722497100         8.2783277553
       28.8888152800         2.9822029766
s   1 1.0 
      127.1052718500        26.9794296956
s   1 1.0 
       39.3395829600        11.1952141621
s   1 1.0 
        7.6740680000         3.2860890225
s   1 1.0 
        3.8745627600        -1.9682357562
s   1 1.0 
        1.8385832600         1.1253110111
s   1 1.0 
        0.5022905800        -0.4252324193
s   1 1.0 
        0.1796272300         0.1966478587
p   6 1.0 
      666.5042328400        13.1758105786
      157.6424169000        16.0544655669
       50.2625209800        17.4320614645
       18.5360781100        14.3789566857
        7.2940532800         7.6571902731
        2.9433249000         1.9874071930
p   1 1.0 
        1.0404970800         1.4979287975
p   1 1.0 
        0.3845641500        -0.4316692201
p   1 1.0 
        0.1306964300         0.1120133392
d   2 1.0 
        4.6100000000         7.5524217504
        1.0110000000         2.6539585854
d   1 1.0 
        0.3390000000         0.4293579962
f   1 1.0 
        0.7060000000         2.6050175686

  4 0
s   7 1.0 
    69507.9909450000         4.1142286333
    10426.1568800000         4.2286655222
     2373.2334061000         5.8493829067
      671.5642007100         8.3358677251
      218.4199979000        10.0089622684
       77.5722497100         8.2783277553
       28.8888152800         2.9822029766
s   1 1.0 
      127.1052718500        26.9794296956
s   1 1.0 
       39.3395829600        11.1952141621
s   1 1.0 
        7.6740680000         3.2860890225
s   1 1.0 
        3.8745627600        -1.9682357562
s   1 1.0 
        1.8385832600         1.1253110111
s   1 1.0 
        0.5022905800        -0.4252324193
s   1 1.0 
        0.1796272300         0.1966478587
p   6 1.0 
      666.5042328400        13.1758105786
      157.6424169000        16.0544655669
       50.2625209800        17.4320614645
       18.5360781100        14.3789566857
        7.2940532800         7.6571902731
        2.9433249000         1.9874071930
p   1 1.0 
        1.0404970800         1.4979287975
p   1 1.0 
        0.3845641500        -0.4316692201
p   1 1.0 
        0.1306964300         0.1120133392
d   2 1.0 
        4.6100000000         7.5524217504
        1.0110000000         2.6539585854
d   1 1.0 
        0.3390000000         0.4293579962
f   1 1.0 
        0.7060000000         2.6050175686

[5D]
[7F]
[9G]
[MO]
 Sym=     1a
 Ene= -1.54912283583249E+03
 Spin= Alpha
 Occup= 1.000000
  1       0.079152459517
  2       0.092431802775
  3       0.170065327483
  4       0.298778630093
  5       0.347531869364
  6       0.177932648700
  7       0.011288592035
  8       0.003101794639
  9      -0.002254161808
 10       0.001482657430
 11      -0.001004051039
 12       0.000678055292
 13      -0.000454122714
 14       0.000306971783
 15      -0.000199055444
 16       0.000104697373
 17      -0.000037589025
 18       0.000009817668
 19      -0.000000116595
 20      -0.000000057975
 21       0.000000190312
 22       0.000000100295
 23       0.000000076748
 24      -0.000000196762
 25      -0.000000087724
 26      -0.000000065640
 27       0.000000169665
 28       0.000000108362
 29       0.000000088719
 30      -0.000000216814
 31      -0.000000159635
 32      -0.000000135928
 33       0.000000324571
 34       0.000000256863
 35       0.000000223481
 36      -0.000000529026
 37      -0.000000448150
 38      -0.000000384823
 39       0.000000921912
 40       0.000000785816
 41       0.000000650445
 42      -0.000001606953
 43      -0.000001060353
 44      -0.000000876839
 45       0.000002179853
 46       0.000000577658
 47       0.000000632850
 48      -0.000001308236
 49      -0.000000059627
 50       0.000000066948
 51       0.000000048897
 52      -0.000000008020
 53      -0.000000041508
 54       0.000000038028
 55      -0.000000141422
 56       0.000000092128
 57       0.000000177410
 58       0.000000032130
 59      -0.000000103237
 60       0.000000233529
 61      -0.000000178270
 62      -0.000000314331
 63      -0.000000043468
 64       0.000000156031
 65      -0.000000439961
 66       0.000000359359
 67       0.000000603938
 68       0.000000066152
 69      -0.000000283681
 70       0.000000836869
 71      -0.000000701992
 72      -0.000001163020
 73      -0.000000121174
 74       0.000000529033
 75      -0.000001677237
 76       0.000001418468
 77       0.000002339140
 78       0.000000239473
 79      -0.000001054545
 80       0.000002987242
 81      -0.000002537736
 82      -0.000004176897
 83      -0.000000431579
 84       0.000001871186
 85      -0.000002392026
 86       0.000002046034
 87       0.000003318017
 88       0.000000333492
 89      -0.000001487659
 90      -0.000000051988
 91       0.000000150341
 92       0.000000045599
 93       0.000000088371
 94       0.000000049529
 95       0.000000078767
 96      -0.000000089852
 97      -0.000000102255
 98      -0.000000027783
 99       0.000000031520
100      -0.000000061454
101      -0.000000131587
102      -0.000000185101
103       0.000000085756
104      -0.000000224124
105      -0.000000380998
106       0.000000103003
107       0.000000506725
108       0.000001098600
109       0.000001531690
110      -0.000000723427
111       0.000001866121
112       0.000003161411
113      -0.000000857029
114      -0.000000690906
115      -0.000001260866
116      -0.000001787467
117       0.000000891947
118      -0.000002450389
119      -0.000003939331
120       0.000001034998
121       0.000000092193
122      -0.000000105865
123       0.000000105412
124      -0.000000807124
125      -0.000001717961
126      -0.000001531912
127       0.000000064225
128      -0.000002864757
129       0.000000085319
130       0.000000153401
131       0.000000163526
132      -0.000000567939
133      -0.000001006454
134      -0.000001073989
135      -0.000000898257
136      -0.000001661720
137      -0.000001773751
138       0.000000092861
139      -0.000000429133
140      -0.000000527699
141      -0.000000057884
142      -0.000000326571
143      -0.000000514152
144       0.000000117066
145      -0.000000211749
146       0.000000493252
147       0.000001728885
148       0.000002757003
149      -0.000000715470
150       0.000001377875
151      -0.000000344337
152       0.000000440710
153       0.000000727296
154      -0.000000482041
155       0.000000913728
156       0.000000484982
157      -0.000000033241
158       0.000000090906
159      -0.000000104366
160       0.000000103838
161      -0.000000793669
162      -0.000001684799
163      -0.000001492900
164       0.000000066151
165      -0.000002988979
166       0.000000103545
167      -0.000000214569
168      -0.000000047843
169      -0.000000672662
170       0.000001391099
171       0.000000310667
172      -0.000001067287
173       0.000002230522
174       0.000000488759
175      -0.000000194275
176       0.000000662984
177       0.000000013669
178       0.000000330490
179       0.000000033332
180      -0.000000265024
181       0.000000302595
182       0.000000436362
183      -0.000001676318
184      -0.000000372503
185       0.000001266584
186      -0.000001727740
187      -0.000002365601
188       0.000000412092
189      -0.000000293393
190       0.000000646165
191       0.000000327040
192       0.000000441968
193       0.000001090366
194      -0.000000227466
195       0.000000091643
196      -0.000000105230
197       0.000000104769
198      -0.000000802005
199      -0.000001706352
200      -0.000001519696
201       0.000000073666
202      -0.000002844171
203      -0.000000233972
204       0.000000036385
205      -0.000000034281
206       0.000001537429
207      -0.000000235238
208       0.000000230556
209       0.000002520920
210      -0.000000402383
211       0.000000348688
212       0.000000592792
213      -0.000000205401
214      -0.000000197897
215       0.000000336664
216      -0.000000216074
217      -0.000000055579
218      -0.000000493415
219       0.000000162705
220      -0.000001753970
221       0.000001124147
222       0.000000064956
223       0.000002845481
224      -0.000000863158
225       0.000000338983
226       0.000000754133
227      -0.000000085661
228      -0.000000428852
229       0.000000137427
230       0.000001018866
231      -0.000000454803
 Sym=     1a
 Ene= -2.53735814846357E+02
 Spin= Alpha
 Occup= 1.000000
  1       0.028911538977
  2       0.037022596103
  3       0.069305996567
  4       0.143603774328
  5       0.207159147836
  6       0.099439711789
  7      -0.447225962820
  8      -0.618117691019
  9      -0.112970874386
 10      -0.003589887906
 11       0.002984793041
 12      -0.002150786968
 13       0.001612996053
 14      -0.001141370814
 15       0.000746250643
 16      -0.000394140272
 17       0.000142041735
 18      -0.000037226800
 19       0.000000997129
 20      -0.000002032212
 21       0.000001768757
 22       0.000001431048
 23      -0.000002760292
 24       0.000002294394
 25       0.000001523631
 26      -0.000002175496
 27       0.000001456458
 28       0.000000607321
 29      -0.000000399989
 30       0.000000030340
 31       0.000000294975
 32       0.000000298802
 33      -0.000000680585
 34      -0.000000833497
 35      -0.000000769337
 36       0.000001784064
 37       0.000001599928
 38       0.000001374869
 39      -0.000003299798
 40      -0.000002918482
 41      -0.000002405346
 42       0.000005971608
 43       0.000004033963
 44       0.000003318345
 45      -0.000008288431
 46      -0.000002116721
 47      -0.000002378737
 48       0.000004857403
 49       0.000000203798
 50      -0.000000266246
 51      -0.000000147677
 52       0.000000034120
 53       0.000000160626
 54      -0.000000151426
 55       0.000017533888
 56      -0.000010848921
 57      -0.000021765861
 58      -0.000004496563
 59       0.000013027948
 60      -0.000000925809
 61       0.000000730778
 62       0.000001156073
 63       0.000000075333
 64      -0.000000642892
 65       0.000000857913
 66      -0.000000835294
 67      -0.000001258332
 68      -0.000000106410
 69       0.000000477599
 70      -0.000003033198
 71       0.000002563593
 72       0.000004189060
 73       0.000000417655
 74      -0.000001916921
 75       0.000006375707
 76      -0.000005402163
 77      -0.000008891897
 78      -0.000000913532
 79       0.000004003334
 80      -0.000011421863
 81       0.000009713457
 82       0.000015969945
 83       0.000001653910
 84      -0.000007149032
 85       0.000008980714
 86      -0.000007680207
 87      -0.000012456862
 88      -0.000001237933
 89       0.000005588290
 90       0.000000241000
 91      -0.000000612729
 92      -0.000000232304
 93      -0.000000347801
 94      -0.000000165362
 95      -0.000000306094
 96       0.000000348252
 97       0.000000397637
 98       0.000000107744
 99      -0.000000122967
100       0.000000259076
101       0.000000580119
102       0.000000808101
103      -0.000000421097
104       0.000001034641
105       0.000001716067
106      -0.000000493171
107      -0.000001980110
108      -0.000004306081
109      -0.000005992599
110       0.000002849278
111      -0.000007320448
112      -0.000012388825
113       0.000003368290
114       0.000002634914
115       0.000004814246
116       0.000006825789
117      -0.000003409405
118       0.000009358032
119       0.000015042540
120      -0.000003956324
121      -0.000000142662
122       0.000000209125
123      -0.000000355353
124       0.000002694726
125       0.000005938912
126       0.000005332265
127      -0.000000672722
128       0.000010484415
129      -0.000000336783
130      -0.000000603503
131      -0.000000644484
132       0.000002185117
133       0.000003871841
134       0.000004133472
135       0.000003401417
136       0.000006304536
137       0.000006729324
138      -0.000000454546
139       0.000001477900
140       0.000001842330
141       0.000000236643
142       0.000001276824
143       0.000002014444
144      -0.000000463239
145       0.000000839663
146      -0.000001905450
147      -0.000006637596
148      -0.000010595660
149       0.000002755762
150      -0.000005300605
151       0.000001320048
152      -0.000001692288
153      -0.000002795998
154       0.000001855497
155      -0.000003512936
156      -0.000001866221
157       0.000000126842
158      -0.000000140602
159       0.000000206084
160      -0.000000349978
161       0.000002649100
162       0.000005823226
163       0.000005195369
164      -0.000000657032
165       0.000010995445
166      -0.000000407029
167       0.000000843851
168       0.000000187562
169       0.000002584672
170      -0.000005345639
171      -0.000001193261
172       0.000004042214
173      -0.000008448396
174      -0.000001852114
175       0.000000641283
176      -0.000002321799
177      -0.000000007967
178      -0.000001290058
179      -0.000000139741
180       0.000001029663
181      -0.000001191065
182      -0.000001710288
183       0.000006432775
184       0.000001438344
185      -0.000004856012
186       0.000006639553
187       0.000009084097
188      -0.000001581558
189       0.000001125392
190      -0.000002478942
191      -0.000001252152
192      -0.000001699986
193      -0.000004187320
194       0.000000874552
195      -0.000000141637
196       0.000000207635
197      -0.000000352781
198       0.000002674353
199       0.000005890948
200       0.000005280367
201      -0.000000717970
202       0.000010388463
203       0.000000922176
204      -0.000000142388
205       0.000000135279
206      -0.000005917887
207       0.000000904217
208      -0.000000886754
209      -0.000009564290
210       0.000001528706
211      -0.000001318805
212      -0.000002005848
213       0.000000748679
214       0.000000800079
215      -0.000001317384
216       0.000000843111
217       0.000000206954
218       0.000001943658
219      -0.000000637570
220       0.000006740256
221      -0.000004313361
222      -0.000000240666
223      -0.000010944871
224       0.000003319524
225      -0.000001301700
226      -0.000002898502
227       0.000000329915
228       0.000001646370
229      -0.000000531692
230      -0.000003918745
231       0.000001749255
 Sym=     1a
 Ene= -2.27219322550356E+02
 Spin= Alpha
 Occup= 1.000000
  1      -0.000000194113
  2      -0.000000252506
  3      -0.000000456460
  4      -0.000001008496
  5      -0.000001326069
  6      -0.000000874808
  7       0.000003868823
  8       0.000003795654
  9       0.000000566877
 10      -0.000002607214
 11       0.000004676786
 12      -0.000007340522
 13       0.000011748204
 14      -0.000016376223
 15       0.000011822008
 16       0.000001823051
 17      -0.000002615420
 18       0.000000726748
 19       0.250451381489
 20      -0.236070772667
 21      -0.054200674643
 22       0.344515607687
 23      -0.324733800201
 24      -0.074557286012
 25       0.222342224674
 26      -0.209575666106
 27      -0.048117436853
 28       0.013032719150
 29      -0.012283506407
 30      -0.002820615770
 31       0.003896854099
 32      -0.003674504216
 33      -0.000843061467
 34      -0.002715039616
 35       0.002561648700
 36       0.000587119872
 37       0.001654629559
 38      -0.001564110627
 39      -0.000357268268
 40      -0.001069484910
 41       0.001015822652
 42       0.000229930387
 43       0.000708044633
 44      -0.000677166530
 45      -0.000150963536
 46      -0.000380193897
 47       0.000363528081
 48       0.000080698810
 49       0.000142718379
 50      -0.000134646333
 51      -0.000031011754
 52      -0.000041807412
 53       0.000039111086
 54       0.000009109019
 55       0.000000609253
 56      -0.000000060249
 57       0.000000191207
 58       0.000000552763
 59       0.000000993761
 60       0.000000378942
 61       0.000001542964
 62      -0.000000541813
 63       0.000002873465
 64       0.000001588443
 65      -0.000000831025
 66      -0.000004140179
 67       0.000001090364
 68      -0.000009759030
 69      -0.000004853683
 70       0.000002268967
 71       0.000010356860
 72      -0.000002946347
 73       0.000023527844
 74       0.000012067313
 75      -0.000004819831
 76      -0.000022507985
 77       0.000006399962
 78      -0.000050994590
 79      -0.000026160625
 80       0.000008375635
 81       0.000039805883
 82      -0.000011473705
 83       0.000089718612
 84       0.000045987264
 85      -0.000005521046
 86      -0.000023299487
 87       0.000008404198
 88      -0.000052490532
 89      -0.000027650477
 90       0.000000552982
 91       0.000000882655
 92      -0.000000442026
 93       0.000001560423
 94       0.000001078042
 95       0.000000104876
 96       0.000000674265
 97      -0.000000173269
 98       0.000001689932
 99       0.000000836217
100      -0.000000504923
101       0.000003441231
102      -0.000001845065
103      -0.000002048544
104      -0.000000669608
105      -0.000001256262
106      -0.000000195568
107       0.000005865665
108      -0.000028142278
109       0.000014084830
110       0.000022905869
111       0.000002801359
112       0.000002985903
113       0.000005225962
114      -0.000004896722
115       0.000022850437
116      -0.000012284605
117      -0.000017451291
118      -0.000002554669
119      -0.000003313006
120      -0.000004532400
121      -0.000000145935
122       0.000000211565
123      -0.000000370893
124       0.000002782084
125       0.000005955735
126       0.000004840068
127      -0.000005091004
128       0.000000609838
129      -0.000000771754
130      -0.000000833916
131      -0.000001052571
132       0.000004597347
133       0.000005564013
134       0.000006720502
135       0.000006467952
136       0.000011310456
137       0.000012256672
138       0.000000149376
139       0.000001037110
140       0.000001566060
141       0.000000842358
142       0.000002236053
143       0.000002251792
144       0.000000387247
145       0.000002296581
146      -0.000004141640
147      -0.000011017448
148      -0.000013108251
149       0.000000547743
150      -0.000010626830
151       0.000001584753
152      -0.000004192924
153      -0.000002093039
154      -0.000002332381
155      -0.000006425921
156      -0.000001635266
157       0.000003564156
158       0.000000579543
159      -0.000000840023
160       0.000001472419
161      -0.000011041714
162      -0.000023651523
163      -0.000019377595
164       0.000016880826
165      -0.000014131195
166       0.000002483266
167      -0.000005280980
168      -0.000001186855
169      -0.000015765824
170       0.000033156550
171       0.000007468342
172      -0.000028275272
173       0.000057815502
174       0.000013033865
175      -0.000003481907
176       0.000009776395
177       0.000002051224
178       0.000006299368
179       0.000002480868
180      -0.000004408875
181       0.000008267104
182       0.000009742284
183      -0.000032899996
184      -0.000012080726
185       0.000022927496
186      -0.000040806712
187      -0.000049943321
188       0.000007624742
189      -0.000005507281
190       0.000011820513
191       0.000007068009
192       0.000007348417
193       0.000018873434
194      -0.000006098560
195      -0.000000480770
196       0.000000697016
197      -0.000001222208
198       0.000009178324
199       0.000019698136
200       0.000016207747
201      -0.000014478035
202       0.000008665596
203       0.000004785787
204      -0.000000485672
205       0.000000898906
206      -0.000030360535
207       0.000003336312
208      -0.000005588452
209      -0.000054099249
210       0.000007144803
211      -0.000009364530
212      -0.000006503289
213      -0.000000314170
214      -0.000001627115
215      -0.000005075029
216       0.000003796321
217      -0.000000613997
218       0.000010328345
219      -0.000001900458
220       0.000027764018
221      -0.000019310451
222       0.000002814127
223      -0.000052994175
224       0.000011574342
225      -0.000006266175
226      -0.000010675483
227       0.000000713193
228       0.000008527442
229      -0.000001035780
230      -0.000016117318
231       0.000002845487
 Sym=     1a
 Ene= -2.27217986991138E+02
 Spin= Alpha
 Occup= 1.000000
  1      -0.000000050544
  2      -0.000000064423
  3      -0.000000122691
  4      -0.000000247772
  5      -0.000000376568
  6      -0.000000149099
  7       0.000000788419
  8       0.000001261016
  9      -0.000000256924
 10       0.000000378302
 11      -0.000000653178
 12       0.000001110027
 13      -0.000001847002
 14       0.000002648603
 15      -0.000001584746
 16      -0.000000925002
 17       0.000000010627
 18       0.000000035547
 19       0.219391679886
 20       0.188062640617
 21       0.194663733326
 22       0.301791055092
 23       0.258695315228
 24       0.267775660303
 25       0.194765178000
 26       0.166952767894
 27       0.172812937568
 28       0.011414235559
 29       0.009783841447
 30       0.010127222210
 31       0.003413942276
 32       0.002927138023
 33       0.003029991663
 34      -0.002377123983
 35      -0.002038947242
 36      -0.002110705287
 37       0.001447333238
 38       0.001242926522
 39       0.001286930864
 40      -0.000933259364
 41      -0.000803810807
 42      -0.000832819053
 43       0.000616142535
 44       0.000532730712
 45       0.000552665499
 46      -0.000331144647
 47      -0.000286181865
 48      -0.000296602168
 49       0.000124658179
 50       0.000107060822
 51       0.000110771885
 52      -0.000036759571
 53      -0.000031362908
 54      -0.000032473534
 55      -0.000000502881
 56      -0.000000676857
 57      -0.000000125345
 58      -0.000000479556
 59      -0.000000131631
 60      -0.000001465974
 61      -0.000000880972
 62      -0.000001875604
 63       0.000001631666
 64      -0.000002477030
 65       0.000005930928
 66       0.000002831395
 67       0.000006110716
 68      -0.000005474834
 69       0.000006924687
 70      -0.000013970586
 71      -0.000006911938
 72      -0.000014679379
 73       0.000013116447
 74      -0.000017113015
 75       0.000030339072
 76       0.000014947747
 77       0.000031823683
 78      -0.000028496854
 79       0.000037085107
 80      -0.000053378186
 81      -0.000026303700
 82      -0.000056232559
 83       0.000050483548
 84      -0.000065645859
 85       0.000031277148
 86       0.000015116604
 87       0.000032590895
 88      -0.000029896491
 89       0.000039212619
 90      -0.000000444344
 91      -0.000000147521
 92      -0.000000727346
 93       0.000000460093
 94      -0.000001377606
 95      -0.000001115010
 96      -0.000000559831
 97      -0.000001065007
 98       0.000000993176
 99      -0.000001140816
100       0.000001659118
101      -0.000000346495
102      -0.000002054082
103       0.000000461399
104      -0.000002695377
105       0.000001792374
106       0.000000032454
107      -0.000021734962
108       0.000000757772
109       0.000016814226
110      -0.000007844094
111       0.000020550390
112      -0.000015232647
113       0.000009449993
114       0.000017332630
115       0.000001265869
116      -0.000014969021
117       0.000009817589
118      -0.000015400957
119       0.000012097819
120      -0.000012243667
121       0.000000620314
122      -0.000000899406
123       0.000001577381
124      -0.000011854719
125      -0.000025478292
126      -0.000021083551
127       0.000017659491
128      -0.000013565474
129       0.000002437449
130       0.000003866187
131       0.000004213830
132      -0.000015530656
133      -0.000024508354
134      -0.000026671853
135      -0.000028485864
136      -0.000043202093
137      -0.000047170494
138      -0.000007396415
139      -0.000002780607
140      -0.000005922538
141      -0.000003198908
142      -0.000006695363
143      -0.000011511692
144       0.000003646738
145      -0.000006685771
146       0.000015816899
147       0.000035805719
148       0.000059807371
149      -0.000018142114
150       0.000034530925
151      -0.000006661886
152       0.000008389197
153       0.000014477724
154      -0.000009558481
155       0.000017237642
156       0.000008213317
157      -0.000000087409
158      -0.000000193304
159       0.000000280213
160      -0.000000491198
161       0.000003684706
162       0.000007896729
163       0.000006480466
164      -0.000005570760
165       0.000004874595
166      -0.000001090168
167       0.000001661055
168       0.000000235511
169       0.000006523262
170      -0.000010571923
171      -0.000001707030
172       0.000010031474
173      -0.000019030246
174      -0.000003890932
175       0.000005695913
176      -0.000001654219
177       0.000002131486
178      -0.000002801835
179      -0.000001081534
180       0.000000734029
181      -0.000001724587
182      -0.000003842939
183       0.000012930797
184       0.000004654114
185      -0.000005351754
186       0.000010467031
187       0.000018644087
188      -0.000000860592
189       0.000003789096
190      -0.000004849208
191       0.000000785251
192      -0.000001470803
193      -0.000008344804
194      -0.000003770264
195      -0.000000418590
196       0.000000606934
197      -0.000001064450
198       0.000008000992
199       0.000017203048
200       0.000014270355
201      -0.000011417015
202       0.000010922749
203       0.000004064789
204      -0.000000635442
205       0.000000659466