[Molden Format]
[Title]
 Molden file created by orca_2mkl for BaseName=/home/smirnovaanastasia2304_2125/_scratch/HERBD/Yb_Cl_cc

[Atoms] AU
Yb   1  70          0.3241957464         0.5331238677        -0.7979104039 
Cl   2  17         -1.5910927130        -2.4317525015        -3.5940663547 
Cl   3  17         -1.8183814135         4.3616768897         0.3335574496 
Cl   4  17          4.6518651246        -0.2475692414         0.2211036268 
[GTO]
  1 0
s   6 1.0 
  1358076.4019249999      2707.2930152518
   603589.5119670000      -738.3436407800
   268262.0053190000      1561.8093109918
   119227.5579190000       321.3188957239
    52990.0257420000       910.2592971992
    23551.1225520000       650.0002417902
s   1 1.0 
    10467.1655790000       737.5337741991
s   1 1.0 
     4652.0735910000       401.4625366565
s   1 1.0 
     2067.5882620000       218.5285256475
s   1 1.0 
      918.9281170000       118.9518627382
s   1 1.0 
      408.4124960000        64.7491927610
s   1 1.0 
      181.5166650000        35.2449963543
s   1 1.0 
       80.6740730000        19.1849459526
s   1 1.0 
       35.8551440000        10.4429619475
s   1 1.0 
       15.9356190000         5.6844283346
s   1 1.0 
        7.0824980000         3.0942110849
s   1 1.0 
        3.1477770000         1.6842752256
s   1 1.0 
        1.3990120000         0.9168033087
s   1 1.0 
        0.6217830000         0.4990444444
s   1 1.0 
        0.2763480000         0.2716453884
s   1 1.0 
        0.1228210000         0.1478647196
s   1 1.0 
        0.0545870000         0.0804872358
s   1 1.0 
        0.0242610000         0.0438118524
p   5 1.0 
    18741.9577990000      4543.1010834218
     7496.7831200000      1702.6495515717
     2998.7132480000      2688.5302230256
     1199.4852990000      2527.9583676190
      479.7941200000      2363.5203868406
p   1 1.0 
      191.9176480000      1018.2014909638
p   1 1.0 
       76.7670590000       323.8983356454
p   1 1.0 
       30.7068240000       103.0347478518
p   1 1.0 
       12.2827290000        32.7762056036
p   1 1.0 
        4.9130920000        10.4263838277
p   1 1.0 
        1.9652370000         3.3167195680
p   1 1.0 
        0.7860950000         1.0550763307
p   1 1.0 
        0.3144380000         0.3356285290
p   1 1.0 
        0.1257750000         0.1067660057
p   1 1.0 
        0.0503100000         0.0339631517
p   1 1.0 
        0.0201240000         0.0108039602
d   4 1.0 
     1379.8152340000      7325.4223721174
      501.7509940000      6870.7279056516
      182.4549070000      6434.1168847394
       66.3472390000      3527.4353518373
d   1 1.0 
       24.1262690000       748.7345495231
d   1 1.0 
        8.7731890000       127.4957426618
d   1 1.0 
        3.1902500000        21.7101757349
d   1 1.0 
        1.1600910000         3.6968445084
d   1 1.0 
        0.4218510000         0.6295039778
d   1 1.0 
        0.1534000000         0.1071925155
d   1 1.0 
        0.0557820000         0.0182530198
d   1 1.0 
        0.0202840000         0.0031080564
f   4 1.0 
       41.1409390000      2636.1638558181
       13.7136460000       730.3196574878
        4.5712150000        90.4591085871
        1.5237380000         5.2735892425
f   1 1.0 
        0.5079130000         1.2417268408
f   1 1.0 
        0.1693040000         0.1048337984

  2 0
s   7 1.0 
    69507.9909450000         4.1142286333
    10426.1568800000         4.2286655222
     2373.2334061000         5.8493829067
      671.5642007100         8.3358677251
      218.4199979000        10.0089622684
       77.5722497100         8.2783277553
       28.8888152800         2.9822029766
s   1 1.0 
      127.1052718500        26.9794296956
s   1 1.0 
       39.3395829600        11.1952141621
s   1 1.0 
        7.6740680000         3.2860890225
s   1 1.0 
        3.8745627600        -1.9682357562
s   1 1.0 
        1.8385832600         1.1253110111
s   1 1.0 
        0.5022905800        -0.4252324193
s   1 1.0 
        0.1796272300         0.1966478587
p   6 1.0 
      666.5042328400        13.1758105786
      157.6424169000        16.0544655669
       50.2625209800        17.4320614645
       18.5360781100        14.3789566857
        7.2940532800         7.6571902731
        2.9433249000         1.9874071930
p   1 1.0 
        1.0404970800         1.4979287975
p   1 1.0 
        0.3845641500        -0.4316692201
p   1 1.0 
        0.1306964300         0.1120133392
d   2 1.0 
        4.6100000000         7.5524217504
        1.0110000000         2.6539585854
d   1 1.0 
        0.3390000000         0.4293579962
f   1 1.0 
        0.7060000000         2.6050175686

  3 0
s   7 1.0 
    69507.9909450000         4.1142286333
    10426.1568800000         4.2286655222
     2373.2334061000         5.8493829067
      671.5642007100         8.3358677251
      218.4199979000        10.0089622684
       77.5722497100         8.2783277553
       28.8888152800         2.9822029766
s   1 1.0 
      127.1052718500        26.9794296956
s   1 1.0 
       39.3395829600        11.1952141621
s   1 1.0 
        7.6740680000         3.2860890225
s   1 1.0 
        3.8745627600        -1.9682357562
s   1 1.0 
        1.8385832600         1.1253110111
s   1 1.0 
        0.5022905800        -0.4252324193
s   1 1.0 
        0.1796272300         0.1966478587
p   6 1.0 
      666.5042328400        13.1758105786
      157.6424169000        16.0544655669
       50.2625209800        17.4320614645
       18.5360781100        14.3789566857
        7.2940532800         7.6571902731
        2.9433249000         1.9874071930
p   1 1.0 
        1.0404970800         1.4979287975
p   1 1.0 
        0.3845641500        -0.4316692201
p   1 1.0 
        0.1306964300         0.1120133392
d   2 1.0 
        4.6100000000         7.5524217504
        1.0110000000         2.6539585854
d   1 1.0 
        0.3390000000         0.4293579962
f   1 1.0 
        0.7060000000         2.6050175686

  4 0
s   7 1.0 
    69507.9909450000         4.1142286333
    10426.1568800000         4.2286655222
     2373.2334061000         5.8493829067
      671.5642007100         8.3358677251
      218.4199979000        10.0089622684
       77.5722497100         8.2783277553
       28.8888152800         2.9822029766
s   1 1.0 
      127.1052718500        26.9794296956
s   1 1.0 
       39.3395829600        11.1952141621
s   1 1.0 
        7.6740680000         3.2860890225
s   1 1.0 
        3.8745627600        -1.9682357562
s   1 1.0 
        1.8385832600         1.1253110111
s   1 1.0 
        0.5022905800        -0.4252324193
s   1 1.0 
        0.1796272300         0.1966478587
p   6 1.0 
      666.5042328400        13.1758105786
      157.6424169000        16.0544655669
       50.2625209800        17.4320614645
       18.5360781100        14.3789566857
        7.2940532800         7.6571902731
        2.9433249000         1.9874071930
p   1 1.0 
        1.0404970800         1.4979287975
p   1 1.0 
        0.3845641500        -0.4316692201
p   1 1.0 
        0.1306964300         0.1120133392
d   2 1.0 
        4.6100000000         7.5524217504
        1.0110000000         2.6539585854
d   1 1.0 
        0.3390000000         0.4293579962
f   1 1.0 
        0.7060000000         2.6050175686

[5D]
[7F]
[9G]
[MO]
 Sym=     1a
 Ene= -2.26156190257220E+03
 Spin= Alpha
 Occup= 1.000000
  1      -0.097624246799
  2      -0.105337990696
  3      -0.178973971995
  4      -0.301053292379
  5      -0.331949313343
  6      -0.165098327669
  7      -0.008758921961
  8      -0.003429146190
  9       0.002494496328
 10      -0.001653624028
 11       0.001110162577
 12      -0.000743620908
 13       0.000493081920
 14      -0.000328113961
 15       0.000217120098
 16      -0.000124884960
 17       0.000040339636
 18      -0.000009881768
 19       0.000000031458
 20      -0.000000001132
 21      -0.000000074707
 22      -0.000000023994
 23      -0.000000001566
 24       0.000000059648
 25       0.000000023382
 26      -0.000000000736
 27      -0.000000057823
 28      -0.000000028491
 29       0.000000001781
 30       0.000000071087
 31       0.000000041877
 32      -0.000000003720
 33      -0.000000105122
 34      -0.000000067334
 35       0.000000007065
 36       0.000000169611
 37       0.000000114291
 38      -0.000000011408
 39      -0.000000289110
 40      -0.000000194108
 41       0.000000007165
 42       0.000000495927
 43       0.000000299852
 44       0.000000091141
 45      -0.000000786019
 46      -0.000000340733
 47      -0.000000311896
 48       0.000000924439
 49       0.000000007503
 50      -0.000000036397
 51      -0.000000006348
 52       0.000000024645
 53       0.000000014228
 54      -0.000000063269
 55       0.000000171703
 56      -0.000000161768
 57      -0.000000241107
 58      -0.000000036473
 59       0.000000100888
 60      -0.000000209705
 61       0.000000191493
 62       0.000000290850
 63       0.000000041938
 64      -0.000000126442
 65       0.000000304146
 66      -0.000000271679
 67      -0.000000418400
 68      -0.000000058260
 69       0.000000186356
 70      -0.000000524279
 71       0.000000463390
 72       0.000000718389
 73       0.000000098299
 74      -0.000000323475
 75       0.000000992526
 76      -0.000000874480
 77      -0.000001357952
 78      -0.000000184671
 79       0.000000613161
 80      -0.000001960197
 81       0.000001716913
 82       0.000002669910
 83       0.000000358581
 84      -0.000001215826
 85       0.000003549030
 86      -0.000003025927
 87      -0.000004760489
 88      -0.000000607148
 89       0.000002260179
 90       0.000000177599
 91      -0.000000253775
 92      -0.000000279134
 93      -0.000000076792
 94       0.000000017151
 95      -0.000000295838
 96       0.000000255273
 97       0.000000399522
 98       0.000000052867
 99      -0.000000186685
100       0.000000039948
101       0.000000060882
102       0.000000080807
103      -0.000000060349
104       0.000000158056
105       0.000000220256
106      -0.000000058617
107      -0.000000287147
108      -0.000000421769
109      -0.000000565746
110       0.000000419480
111      -0.000001112293
112      -0.000001550361
113       0.000000410430
114       0.000000951060
115       0.000001236074
116       0.000001732564
117      -0.000001229268
118       0.000003415704
119       0.000004796427
120      -0.000001247156
121      -0.000000043063
122       0.000000047517
123      -0.000000042099
124       0.000000308528
125       0.000000578506
126       0.000000327265
127       0.000000020788
128       0.000005952129
129      -0.000000029308
130      -0.000000039661
131      -0.000000035565
132       0.000000123580
133       0.000000157697
134       0.000000139306
135      -0.000000764381
136      -0.000001247329
137      -0.000001191517
138       0.000001065586
139       0.000001936274
140       0.000001808375
141      -0.000000063969
142       0.000000180966
143       0.000000233784
144      -0.000000008588
145       0.000000065968
146       0.000000212710
147      -0.000000394933
148      -0.000000440887
149      -0.000000062420
150      -0.000000062966
151       0.000000641916
152      -0.000000393374
153      -0.000000583658
154       0.000000451797
155      -0.000001047915
156      -0.000000499673
157       0.000000086789
158      -0.000000037243
159       0.000000041036
160      -0.000000036155
161       0.000000261370
162       0.000000477141
163       0.000000238306
164       0.000000099421
165       0.000006100310
166      -0.000000023145
167       0.000000041143
168       0.000000015778
169       0.000000066983
170      -0.000000119510
171      -0.000000055356
172      -0.000000994305
173       0.000001775481
174       0.000000487868
175       0.000001446645
176      -0.000002504841
177      -0.000000680596
178      -0.000000150548
179       0.000000032720
180       0.000000185391
181      -0.000000069222
182      -0.000000163942
183       0.000000228219
184      -0.000000179338
185      -0.000000366457
186       0.000000004830
187       0.000000135152
188      -0.000000545054
189       0.000000353305
190      -0.000000544561
191      -0.000000474261
192      -0.000000531357
193      -0.000001030381
194      -0.000000000632
195      -0.000000040943
196       0.000000045155
197      -0.000000039929
198       0.000000291264
199       0.000000541249
200       0.000000294306
201       0.000000045625
202       0.000005961952
203       0.000000054446
204      -0.000000007209
205       0.000000017729
206      -0.000000200100
207       0.000000020215
208      -0.000000074937
209       0.000001870164
210      -0.000000368725
211       0.000000389061
212      -0.000002767508
213       0.000000665239
214      -0.000000499400
215      -0.000000152716
216       0.000000171891
217       0.000000092618
218       0.000000172474
219      -0.000000062538
220       0.000000267003
221      -0.000000387120
222      -0.000000286896
223      -0.000000222467
224       0.000000038654
225      -0.000000518654
226      -0.000000696142
227       0.000000157181
228       0.000000671391
229      -0.000000109981
230      -0.000000915110
231       0.000000564153
 Sym=     1a
 Ene= -3.88795262653359E+02
 Spin= Alpha
 Occup= 1.000000
  1      -0.037449144501
  2      -0.044754233424
  3      -0.076787574207
  4      -0.152416556678
  5      -0.201594341507
  6      -0.062879773203
  7       0.493331438040
  8       0.582341981902
  9       0.081787267053
 10       0.004936963768
 11      -0.004330446033
 12       0.003044555772
 13      -0.002146269627
 14       0.001470522787
 15      -0.000980880511
 16       0.000567476044
 17      -0.000183005197
 18       0.000044879615
 19      -0.000000308063
 20       0.000000165307
 21       0.000000589227
 22      -0.000000445374
 23       0.000000235977
 24       0.000000864542
 25      -0.000000418777
 26       0.000000192220
 27       0.000000853294
 28      -0.000000070088
 29      -0.000000025958
 30       0.000000131568
 31      -0.000000116415
 32       0.000000036360
 33       0.000000297784
 34       0.000000268931
 35      -0.000000038271
 36      -0.000000680379
 37      -0.000000488538
 38       0.000000055168
 39       0.000001238812
 40       0.000000860262
 41      -0.000000033324
 42      -0.000002200828
 43      -0.000001360898
 44      -0.000000427281
 45       0.000003570714
 46       0.000001556774
 47       0.000001452181
 48      -0.000004226243
 49      -0.000000033281
 50       0.000000170227
 51       0.000000025383
 52      -0.000000112914
 53      -0.000000066827
 54       0.000000290136
 55      -0.000022033411
 56       0.000020796174
 57       0.000030946091
 58       0.000004699133
 59      -0.000012939886
 60      -0.000002337103
 61       0.000002201795
 62       0.000003271604
 63       0.000000498890
 64      -0.000001378613
 65      -0.000000384078
 66       0.000000319588
 67       0.000000519112
 68       0.000000062641
 69      -0.000000243310
 70       0.000001831094
 71      -0.000001606026
 72      -0.000002504524
 73      -0.000000337671
 74       0.000001132978
 75      -0.000004332315
 76       0.000003810931
 77       0.000005924433
 78       0.000000803084
 79      -0.000002678381
 80       0.000008847937
 81      -0.000007745097
 82      -0.000012047936
 83      -0.000001616156
 84       0.000005489416
 85      -0.000016276902
 86       0.000013869119
 87       0.000021825940
 88       0.000002780603
 89      -0.000010371357
 90      -0.000000840729
 91       0.000001191919
 92       0.000001317620
 93       0.000000359275
 94      -0.000000090552
 95       0.000001360615
 96      -0.000001174493
 97      -0.000001837517
 98      -0.000000243303
 99       0.000000858280
100      -0.000000204215
101      -0.000000307275
102      -0.000000410059
103       0.000000307939
104      -0.000000804308
105      -0.000001120649
106       0.000000296133
107       0.000001331277
108       0.000001951871
109       0.000002619279
110      -0.000001943232
111       0.000005153370
112       0.000007181747
113      -0.000001900312
114      -0.000004389175
115      -0.000005700734
116      -0.000007992693
117       0.000005669819
118      -0.000015757335
119      -0.000022128130
120       0.000005752712
121       0.000000089366
122      -0.000000123820
123       0.000000181585
124      -0.000001251303
125      -0.000002399611
126      -0.000001309936
127      -0.000000096122
128      -0.000027503710
129       0.000000136201
130       0.000000184690
131       0.000000165919
132      -0.000000539183
133      -0.000000680426
134      -0.000000598823
135       0.000003583538
136       0.000005841706
137       0.000005578458
138      -0.000004889745
139      -0.000008895773
140      -0.000008308065
141       0.000000293848
142      -0.000000839121
143      -0.000001085571
144       0.000000042133
145      -0.000000309490
146      -0.000000992316
147       0.000001764514
148       0.000001944887
149       0.000000316620
150       0.000000227245
151      -0.000002920043
152       0.000001784677
153       0.000002646507
154      -0.000002047365
155       0.000004751325
156       0.000002258881
157      -0.000000392995
158       0.000000076785
159      -0.000000106456
160       0.000000155328
161      -0.000001054240
162      -0.000001965958
163      -0.000000927940
164      -0.000000480348
165      -0.000028213089
166       0.000000107583
167      -0.000000191392
168      -0.000000073014
169      -0.000000274360
170       0.000000489689
171       0.000000236429
172       0.000004648241
173      -0.000008299871
174      -0.000002283945
175      -0.000006653848
176       0.000011519589
177       0.000003128231
178       0.000000696482
179      -0.000000149290
180      -0.000000856607
181       0.000000321955
182       0.000000760267
183      -0.000001001057
184       0.000000855040
185       0.000001643907
186       0.000000032866
187      -0.000000534023
188       0.000002472387
189      -0.000001604998
190       0.000002467571
191       0.000002157679
192       0.000002403255
193       0.000004664046
194       0.000000006521
195       0.000000084780
196      -0.000000117485
197       0.000000171996
198      -0.000001179098
199      -0.000002240089
200      -0.000001168322
201      -0.000000218618
202      -0.000027558638
203      -0.000000253430
204       0.000000033667
205      -0.000000082052
206       0.000000854024
207      -0.000000080964
208       0.000000328546
209      -0.000008753445
210       0.000001723526
211      -0.000001825770
212       0.000012718025
213      -0.000003062124
214       0.000002289959
215       0.000000707856
216      -0.000000795590
217      -0.000000426178
218      -0.000000802274
219       0.000000291068
220      -0.000001178330
221       0.000001738413
222       0.000001334220
223       0.000000927437
224      -0.000000141405
225       0.000002354042
226       0.000003157343
227      -0.000000715661
228      -0.000003048573
229       0.000000489846
230       0.000004143661
231      -0.000002557064
 Sym=     1a
 Ene= -3.43741555315975E+02
 Spin= Alpha
 Occup= 1.000000
  1      -0.000000062441
  2      -0.000000077342
  3      -0.000000120827
  4      -0.000000283308
  5      -0.000000277500
  6      -0.000000246597
  7       0.000001285130
  8       0.000000402384
  9       0.000000887028
 10      -0.000002002641
 11       0.000003477963
 12      -0.000005493445
 13       0.000008247912
 14      -0.000009997658
 15       0.000004169406
 16       0.000004867689
 17      -0.000001912045
 18       0.000001165953
 19       0.179301909098
 20      -0.297730185500
 21      -0.105074949264
 22       0.236790490536
 23      -0.393189802602
 24      -0.138764572400
 25       0.147521463711
 26      -0.244958874230
 27      -0.086450903482
 28       0.006623569614
 29      -0.010998505409
 30      -0.003881612964
 31       0.002848357963
 32      -0.004729492605
 33      -0.001669084591
 34      -0.001949646726
 35       0.003237024671
 36       0.001142321304
 37       0.001186657806
 38      -0.001969826670
 39      -0.000695037042
 40      -0.000742170127
 41       0.001231402295
 42       0.000434336854
 43       0.000471821313
 44      -0.000782106838
 45      -0.000275552508
 46      -0.000272086285
 47       0.000450092398
 48       0.000157951371
 49       0.000092293298
 50      -0.000153701403
 51      -0.000054407676
 52      -0.000023092543
 53       0.000038723211
 54       0.000013800457
 55      -0.000000006369
 56       0.000000192906
 57      -0.000000245218
 58      -0.000000026682
 59       0.000000187575
 60       0.000000372865
 61       0.000001290406
 62      -0.000000078319
 63       0.000001394976
 64       0.000001501930
 65      -0.000001190133
 66      -0.000003652806
 67       0.000000059485
 68      -0.000004189794
 69      -0.000004392550
 70       0.000002748641
 71       0.000008573214
 72      -0.000000285384
 73       0.000009704051
 74       0.000010273410
 75      -0.000005570099
 76      -0.000017353759
 77       0.000000628174
 78      -0.000019618699
 79      -0.000020807262
 80       0.000009269593
 81       0.000028181735
 82      -0.000001295999
 83       0.000031999399
 84       0.000034074565
 85      -0.000008330451
 86      -0.000020450851
 87       0.000003025027
 88      -0.000024576259
 89      -0.000026771028
 90      -0.000003243620
 91      -0.000009682257
 92       0.000000915616
 93      -0.000010724636
 94      -0.000011864535
 95       0.000002287032
 96       0.000006741702
 97      -0.000000492880
 98       0.000007742494
 99       0.000008252501
100       0.000001030129
101      -0.000000633561
102       0.000000322964
103       0.000001616489
104       0.000000371372
105       0.000000537620
106       0.000000632778
107       0.000006195823
108      -0.000010615262
109       0.000003775424
110       0.000011090181
111      -0.000000980815
112       0.000003139834
113       0.000004001753
114      -0.000008229897
115       0.000012569810
116      -0.000005749937
117      -0.000012881693
118      -0.000000617411
119      -0.000006485332
120      -0.000005214951
121      -0.000000249004
122       0.000000344601
123      -0.000000526392
124       0.000003614628
125       0.000006864345
126       0.000003513583
127      -0.000010417973
128       0.000014378154
129      -0.000001111750
130      -0.000001681494
131      -0.000001597785
132       0.000005807715
133       0.000009797951
134       0.000008992601
135       0.000002203566
136       0.000010935844
137       0.000008014348
138       0.000005006955
139       0.000013362545
140       0.000010990819
141       0.000000694999
142       0.000002914907
143       0.000004366556
144      -0.000001303224
145       0.000003441393
146      -0.000002322537
147      -0.000009359295
148      -0.000017614125
149       0.000007194456
150      -0.000011732618
151       0.000005540674
152      -0.000005311067
153      -0.000006164805
154       0.000002602068
155      -0.000013396433
156      -0.000006540687
157       0.000003891729
158       0.000000435743
159      -0.000000602371
160       0.000000917385
161      -0.000006230621
162      -0.000011596679
163      -0.000005320939
164       0.000017785299
165      -0.000038906957
166       0.000002234553
167      -0.000003950839
168      -0.000001160442
169      -0.000012233383
170       0.000021575877
171       0.000006363068
172      -0.000009036743
173       0.000015350113
174       0.000004647983
175      -0.000017622753
176       0.000032224529
177       0.000009538733
178       0.000004921548
179       0.000002832005
180      -0.000004320824
181       0.000005307648
182       0.000008739260
183      -0.000016957034
184      -0.000009722411
185       0.000015028993
186      -0.000018053372
187      -0.000030118819
188       0.000011219868
189      -0.000006620278
190       0.000012171811
191       0.000007598521
192       0.000013276890
193       0.000024655508
194      -0.000001188882
195      -0.000000258844
196       0.000000358071
197      -0.000000546389
198       0.000003737361
199       0.000007047387
200       0.000003474356
201      -0.000010922860
202       0.000016365479
203       0.000002618091
204      -0.000000513298
205       0.000000594686
206      -0.000014605804
207       0.000003353935
208      -0.000003046284
209      -0.000012514821
210       0.000006444345
211      -0.000000634954
212      -0.000018777564
213       0.000005484499
214      -0.000003146209
215      -0.000002717845
216       0.000002464998
217      -0.000000791713
218       0.000005471416
219      -0.000002010208
220       0.000010760558
221      -0.000007527917
222       0.000002989333
223      -0.000019290107
224       0.000010126529
225      -0.000006442553
226      -0.000007210462
227       0.000000519098
228       0.000009082242
229      -0.000002527159
230      -0.000013435551
231       0.000004274675
 Sym=     1a
 Ene= -3.43741366913958E+02
 Spin= Alpha
 Occup= 1.000000
  1       0.000000015317
  2       0.000000019338
  3       0.000000028527
  4       0.000000073484
  5       0.000000059104
  6       0.000000082061
  7      -0.000000375980
  8      -0.000000005900
  9      -0.000000353880
 10       0.000000784440
 11      -0.000001367495
 12       0.000002166609
 13      -0.000003286035
 14       0.000004105453
 15      -0.000002075431
 16      -0.000001437023
 17       0.000000592645
 18      -0.000000392529
 19       0.292006514312
 20       0.110424823836
 21       0.185396354187
 22       0.385631145532
 23       0.145829817183
 24       0.244839107669
 25       0.240249279248
 26       0.090852379360
 27       0.152535435250
 28       0.010787114746
 29       0.004079285638
 30       0.006848856354
 31       0.004637810997
 32       0.001753731558
 33       0.002944432118
 34      -0.003173329337
 35      -0.001199843857
 36      -0.002014512899
 37       0.001929375104
 38       0.000729304922
 39       0.001224535462
 40      -0.001203576120
 41      -0.000454668602
 42      -0.000763449100
 43       0.000761871571
 44       0.000287403198
 45       0.000482697950
 46      -0.000437272376
 47      -0.000164285224
 48      -0.000276445263
 49       0.000152186216
 50       0.000057815589
 51       0.000096917810
 52      -0.000039196992
 53      -0.000015047191
 54      -0.000025116549
 55       0.000000226329
 56       0.000000182746
 57       0.000000115861
 58      -0.000000109045
 59       0.000000030022
 60      -0.000000802501
 61      -0.000000155525
 62      -0.000001337733
 63       0.000001637895
 64      -0.000001355433
 65       0.000002549638
 66       0.000000582740
 67       0.000003972596
 68      -0.000004884649
 69       0.000003894595
 70      -0.000005791658
 71      -0.000001244943
 72      -0.000009148276
 73       0.000011273938
 74      -0.000009026122
 75       0.000011702304
 76       0.000002497077
 77       0.000018501208
 78      -0.000022807599
 79       0.000018273629
 80      -0.000019216251
 81      -0.000004024473
 82      -0.000030202517
 83       0.000037348272
 84      -0.000029927666
 85       0.000015005135
 86       0.000002471829
 87       0.000022207430
 88      -0.000028528020
 89       0.000022656110
 90       0.000006488641
 91       0.000001108732
 92       0.000010412313
 93      -0.000013008450
 94       0.000010749194
 95      -0.000004491315
 96      -0.000000845962
 97      -0.000007014222
 98       0.000008788995
 99      -0.000007017907
100      -0.000001848724
101      -0.000000095613
102       0.000000399663
103       0.000000855093
104       0.000001037766
105      -0.000000322570
106       0.000000222213
107      -0.000010378839
108      -0.000003105972
109       0.000007611950
110       0.000000618062
111       0.000008688436
112      -0.000003700783
113       0.000005503729
114       0.000013146390
115       0.000004666978
116      -0.000009354086
117      -0.000000117160
118      -0.000009634670
119       0.000004858978
120      -0.000008596552
121       0.000000405736
122      -0.000000561352
123       0.000000856681
124      -0.000005861801
125      -0.000011054161
126      -0.000005427543
127       0.000017126345
128      -0.000029783782
129       0.000001736627
130       0.000002806235
131       0.000002620423
132      -0.000009999070
133      -0.000015551170
134      -0.000014662602
135      -0.000009715271
136      -0.000011758996
137      -0.000011928174
138      -0.000015211644
139      -0.000018723777
140      -0.000019133612
141      -0.000000961424
142      -0.000004678995
143      -0.000007734140
144       0.000002753892
145      -0.000005275535
146       0.000003413660
147       0.000018237113
148       0.000027896868
149      -0.000008820220
150       0.000020008062
151      -0.000009650632
152       0.000006692661
153       0.000011778635
154      -0.000011072999
155       0.000019557102
156       0.000011896204
157       0.000000050618
158      -0.000000001770
159       0.000000002463
160      -0.000000003796
161       0.000000027139
162       0.000000056048
163       0.000000045761
164       0.000000135455
165       0.000001148202
166       0.000000104807
167       0.000000037820
168       0.000000063723
169      -0.000001155740
170      -0.000000397385
171      -0.000000700962
172      -0.000005509650
173      -0.000001708759
174      -0.000003265776
175      -0.000002535737
176      -0.000001231811
177      -0.000001740854
178      -0.000000100809
179      -0.000000036057
180       0.000000131067
181      -0.000000090566
182       0.000000121933
183      -0.000000699411
184       0.000000273868
185      -0.000002524568
186       0.000002992234
187      -0.000002765767
188       0.000000553156
189       0.000001291203
190      -0.000001013980
191       0.000002020980
192       0.000000548434
193      -0.000000681831
194      -0.000003251730
195      -0.000000379618
196       0.000000525031
197      -0.000000800495
198       0.000005458715
199       0.000010231726
200       0.000004867716
201      -0.000015757062
202       0.000031639517
203       0.000003825600
204      -0.000000730445
205       0.000000872399