[Molden Format]
[Title]
 Molden file created by orca_2mkl for BaseName=/home/nikolayandreadi_2125/_scratch/F1_cc/Eu_F1_cc

[Atoms] AU
Eu   1  63          0.0502459282        -0.6501016949        -1.5460095166 
F    2   9         -1.5125292387         2.8054307266        -0.5563202560 
[GTO]
  1 0
s   6 1.0 
  1097819.8713740001      2094.1051919023
   487919.9428330000      -553.4936466776
   216853.3079260000      1227.4145046986
    96379.2479670000       287.0671366721
    42835.2213190000       753.5424106054
    19037.8761420000       575.9766746901
s   1 1.0 
     8461.2782850000       628.7631433054
s   1 1.0 
     3760.5681270000       342.2553045042
s   1 1.0 
     1671.3636120000       186.3001906214
s   1 1.0 
      742.8282720000       101.4089791124
s   1 1.0 
      330.1458990000        55.2000565222
s   1 1.0 
      146.7315110000        30.0471049961
s   1 1.0 
       65.2140050000        16.3555723516
s   1 1.0 
       28.9840020000         8.9028458850
s   1 1.0 
       12.8817790000         4.8460955778
s   1 1.0 
        5.7252350000         2.6378802750
s   1 1.0 
        2.5445490000         1.4358801973
s   1 1.0 
        1.1309110000         0.7815943539
s   1 1.0 
        0.5026270000         0.4254460079
s   1 1.0 
        0.2233900000         0.2315836467
s   1 1.0 
        0.0992840000         0.1260577472
s   1 1.0 
        0.0441260000         0.0686168872
s   1 1.0 
        0.0196120000         0.0373509374
p   5 1.0 
    14914.5995620000      2930.9495136540
     5965.8398250000      1201.0763570229
     2386.3359300000      1902.9439950739
      954.5343720000      1878.8141301970
      381.8137490000      1791.4157676492
p   1 1.0 
      152.7255000000       765.2961568742
p   1 1.0 
       61.0902000000       243.4470529600
p   1 1.0 
       24.4360800000        77.4425260895
p   1 1.0 
        9.7744320000        24.6351096643
p   1 1.0 
        3.9097730000         7.8366331475
p   1 1.0 
        1.5639090000         2.4928975832
p   1 1.0 
        0.6255640000         0.7930120249
p   1 1.0 
        0.2502250000         0.2522629443
p   1 1.0 
        0.1000900000         0.0802469342
p   1 1.0 
        0.0400360000         0.0255272151
p   1 1.0 
        0.0160140000         0.0081201653
d   4 1.0 
     1048.0606430000      4504.7143273632
      381.1129610000      4335.1022993005
      138.5865310000      4042.3256851319
       50.3951020000      2169.6801268913
d   1 1.0 
       18.3254920000       462.7191349861
d   1 1.0 
        6.6638150000        78.7925605433
d   1 1.0 
        2.4232060000        13.4169305260
d   1 1.0 
        0.8811660000         2.2846575564
d   1 1.0 
        0.3204240000         0.3890352011
d   1 1.0 
        0.1165180000         0.0662457271
d   1 1.0 
        0.0423700000         0.0112803453
d   1 1.0 
        0.0154070000         0.0019207760
f   4 1.0 
       29.2179750000      1158.8421481478
        9.7393250000       321.6749227643
        3.2464420000        42.1545037835
        1.0821470000         2.5534487342
f   1 1.0 
        0.3607160000         0.5749396280
f   1 1.0 
        0.1202390000         0.0485402635

  2 0
s   6 1.0 
    35479.1004410000         1.9229128581
     5318.4728983000         2.2734773358
     1210.4810975000         3.4747482552
      342.8551814000         5.2879612972
      112.0194318100         7.1666332516
       40.7147402500         7.7556346254
s   1 1.0 
       16.0396781100         5.7122450312
s   1 1.0 
        6.5038186700         2.9025947842
s   1 1.0 
        1.5440477500         0.9872011154
s   1 1.0 
        0.6122345300        -0.4932856223
s   1 1.0 
        0.2402798000         0.2445952611
p   4 1.0 
       80.2339004800         4.2755032106
       18.5940107400         4.7314752302
        5.6867902700         4.0864798013
        1.9511006300         2.2989954518
p   1 1.0 
        0.6697021100         0.8635593126
p   1 1.0 
        0.2165130000         0.2105208234
d   1 1.0 
        3.1070000000        20.7284714039
d   1 1.0 
        0.8550000000         2.1672588463
f   1 1.0 
        1.9170000000        24.6547062912

[5D]
[7F]
[9G]
[MO]
 Sym=     1a
 Ene= -1.78937899630453E+03
 Spin= Alpha
 Occup= 1.000000
  1      -0.085359422192
  2      -0.096811069450
  3      -0.173194208055
  4      -0.299637993649
  5      -0.342338760345
  6      -0.173490443078
  7      -0.010394100753
  8      -0.003200508318
  9       0.002328029173
 10      -0.001533608778
 11       0.001031259341
 12      -0.000688667987
 13       0.000451048845
 14      -0.000292004540
 15       0.000183991057
 16      -0.000106442594
 17       0.000046454572
 18      -0.000012520134
 19      -0.000000128351
 20       0.000000283803
 21       0.000000081283
 22       0.000000172537
 23      -0.000000381506
 24      -0.000000109266
 25      -0.000000143938
 26       0.000000318268
 27       0.000000091154
 28       0.000000169459
 29      -0.000000374699
 30      -0.000000107316
 31      -0.000000247923
 32       0.000000548196
 33       0.000000157007
 34       0.000000398886
 35      -0.000000881998
 36      -0.000000252610
 37      -0.000000696240
 38       0.000001539492
 39       0.000000440922
 40       0.000001166148
 41      -0.000002578529
 42      -0.000000738509
 43      -0.000001593232
 44       0.000003522877
 45       0.000001008977
 46       0.000002404335
 47      -0.000005316348
 48      -0.000001522640
 49      -0.000000459707
 50       0.000001016482
 51       0.000000291128
 52       0.000000095371
 53      -0.000000210880
 54      -0.000000060398
 55      -0.000000000070
 56      -0.000000000030
 57       0.000000000067
 58      -0.000000000093
 59      -0.000000000106
 60      -0.000000052579
 61      -0.000000022675
 62       0.000000050137
 63      -0.000000069625
 64      -0.000000079169
 65       0.000000133654
 66       0.000000057638
 67      -0.000000127446
 68       0.000000176984
 69       0.000000201244
 70      -0.000000284280
 71      -0.000000122595
 72       0.000000271075
 73      -0.000000376442
 74      -0.000000428043
 75       0.000000559211
 76       0.000000241157
 77      -0.000000533235
 78       0.000000740503
 79       0.000000842008
 80      -0.000000834158
 81      -0.000000359727
 82       0.000000795411
 83      -0.000001104586
 84      -0.000001255998
 85       0.000001487153
 86       0.000000641328
 87      -0.000001418073
 88       0.000001969278
 89       0.000002239217
 90      -0.000000189875
 91      -0.000000081883
 92       0.000000181055
 93      -0.000000251431
 94      -0.000000285897
 95       0.000000035538
 96       0.000000015326
 97      -0.000000033887
 98       0.000000047059
 99       0.000000053510
100       0.000000062413
101      -0.000000030667
102       0.000000067809
103       0.000000055742
104       0.000000063383
105       0.000000126281
106      -0.000000038596
107      -0.000000316770
108       0.000000155646
109      -0.000000344156
110      -0.000000282912
111      -0.000000321692
112      -0.000000640922
113       0.000000195888
114       0.000000606537
115      -0.000000298023
116       0.000000658974
117       0.000000541706
118       0.000000615961
119       0.000001227208
120      -0.000000375077
121      -0.000000119832
122       0.000000552880
123      -0.000001045882
124       0.000002959966
125       0.000005294194
126       0.000007662990
127       0.000000263986
128      -0.000000583712
129      -0.000000167179
130      -0.000001129349
131       0.000002497162
132       0.000000715205
133       0.000001043065
134      -0.000002306376
135      -0.000000660562
136      -0.000000120873
137      -0.000000052126
138       0.000000115259
139      -0.000000160060
140      -0.000000182000
141       0.000000642884
142       0.000000277241
143      -0.000000613022
144       0.000000851303
145       0.000000967996
146      -0.000000037465
147       0.000000018409
148      -0.000000040705
149      -0.000000033461
150      -0.000000038048
151      -0.000000075804
152       0.000000023168
 Sym=     1a
 Ene= -2.98373239551809E+02
 Spin= Alpha
 Occup= 1.000000
  1      -0.031729944523
  2      -0.039609974648
  3      -0.071912338222
  4      -0.146789087501
  5      -0.205781152161
  6      -0.087378565816
  7       0.464281141184
  8       0.606571960687
  9       0.101088235989
 10       0.004018828115
 11      -0.003477452638
 12       0.002469297002
 13      -0.001768442160
 14       0.001189448837
 15      -0.000755886351
 16       0.000440332075
 17      -0.000192738795
 18       0.000052022139
 19      -0.000001936704
 20       0.000004282347
 21       0.000001226495
 22      -0.000002746605
 23       0.000006073162
 24       0.000001739397
 25      -0.000001264208
 26       0.000002795357
 27       0.000000800610
 28       0.000000929574
 29      -0.000002055429
 30      -0.000000588690
 31       0.000000423191
 32      -0.000000935740
 33      -0.000000268003
 34      -0.000001319019
 35       0.000002916550
 36       0.000000835321
 37       0.000002661474
 38      -0.000005884921
 39      -0.000001685483
 40      -0.000004713763
 41       0.000010422844
 42       0.000002985177
 43       0.000006646491
 44      -0.000014696397
 45      -0.000004209153
 46      -0.000009936849
 47       0.000021971876
 48       0.000006292903
 49       0.000001894700
 50      -0.000004189467
 51      -0.000001199893
 52      -0.000000392619
 53       0.000000868141
 54       0.000000248642
 55       0.000000269832
 56       0.000000116360
 57      -0.000000257298
 58       0.000000357306
 59       0.000000406285
 60       0.000000098354
 61       0.000000042412
 62      -0.000000093786
 63       0.000000130236
 64       0.000000148090
 65      -0.000000460944
 66      -0.000000198779
 67       0.000000439532
 68      -0.000000610377
 69      -0.000000694046
 70       0.000001088483
 71       0.000000469403
 72      -0.000001037922
 73       0.000001441361
 74       0.000001638937
 75      -0.000002327965
 76      -0.000001003924
 77       0.000002219829
 78      -0.000003082676
 79      -0.000003505235
 80       0.000003510127
 81       0.000001513726
 82      -0.000003347077
 83       0.000004648085
 84       0.000005285224
 85      -0.000006167120
 86      -0.000002659542
 87       0.000005880651
 88      -0.000008166458
 89      -0.000009285879
 90       0.000000787868
 91       0.000000339764
 92      -0.000000751271
 93       0.000001043289
 94       0.000001186298
 95      -0.000000148061
 96      -0.000000063850
 97       0.000000141183
 98      -0.000000196061
 99      -0.000000222936
100      -0.000000256739
101       0.000000126150
102      -0.000000278934
103      -0.000000229297
104      -0.000000260726
105      -0.000000519458
106       0.000000158764
107       0.000001363081
108      -0.000000669753
109       0.000001480924
110       0.000001217386
111       0.000001384259
112       0.000002757924
113      -0.000000842918
114      -0.000002530116
115       0.000001243177
116      -0.000002748853
117      -0.000002259681
118      -0.000002569427
119      -0.000005119189
120       0.000001564602
121       0.000000411995
122      -0.000002082635
123       0.000004167673
124      -0.000012174155
125      -0.000021677748
126      -0.000031558120
127      -0.000001123760
128       0.000002484803
129       0.000000711665
130       0.000004674462
131      -0.000010335942
132      -0.000002960288
133      -0.000004284300
134       0.000009473236
135       0.000002713203
136       0.000000529764
137       0.000000228458
138      -0.000000505156
139       0.000000701510
140       0.000000797670
141      -0.000002727923
142      -0.000001176404
143       0.000002601208
144      -0.000003612297
145      -0.000004107454
146       0.000000176785
147      -0.000000086864
148       0.000000192069
149       0.000000157889
150       0.000000179532
151       0.000000357690
152      -0.000000109323
 Sym=     1a
 Ene= -2.66209033572577E+02
 Spin= Alpha
 Occup= 1.000000
  1       0.000000000000
  2       0.000000000000
  3       0.000000000000
  4       0.000000000000
  5       0.000000000000
  6       0.000000000000
  7      -0.000000000000
  8      -0.000000000001
  9       0.000000000000
 10      -0.000000000001
 11       0.000000000001
 12      -0.000000000000
 13       0.000000000000
 14       0.000000000000
 15      -0.000000000000
 16      -0.000000000000
 17       0.000000000000
 18      -0.000000000000
 19       0.107018947783
 20       0.136535824449
 21      -0.307730342998
 22       0.145293163801
 23       0.185366445077
 24      -0.417786906505
 25       0.092611737703
 26       0.118154964358
 27      -0.266302765999
 28       0.004942371892
 29       0.006305526591
 30      -0.014211668392
 31       0.001678658632
 32       0.002141649166
 33      -0.004826941465
 34      -0.001150156953
 35      -0.001467381535
 36       0.003307247932
 37       0.000684895071
 38       0.000873795856
 39      -0.001969398872
 40      -0.000409105125
 41      -0.000521940335
 42       0.001176371689
 43       0.000237705648
 44       0.000303267200
 45      -0.000683516725
 46      -0.000131396021
 47      -0.000167636334
 48       0.000377826015
 49       0.000062688470
 50       0.000079978565
 51      -0.000180259148
 52      -0.000019938506
 53      -0.000025437742
 54       0.000057332682
 55      -0.000000239163
 56       0.000000266057
 57      -0.000000420849
 58      -0.000000289734
 59       0.000000070924
 60       0.000000691426
 61      -0.000000769179
 62       0.000001216684
 63       0.000000837631
 64      -0.000000205044
 65       0.000000320147
 66      -0.000000356148
 67       0.000000563355
 68       0.000000387840
 69      -0.000000094939
 70      -0.000000300239
 71       0.000000334001
 72      -0.000000528323
 73      -0.000000363723
 74       0.000000089035
 75       0.000000748852
 76      -0.000000833063
 77       0.000001317737
 78       0.000000907196
 79      -0.000000222072
 80      -0.000001077552
 81       0.000001198726
 82      -0.000001896141
 83      -0.000001305400
 84       0.000000319548
 85       0.000001204232
 86      -0.000001339652
 87       0.000002119057
 88       0.000001458867
 89      -0.000000357115
 90       0.000000641011
 91      -0.000000713095
 92       0.000001127971
 93       0.000000776553
 94      -0.000000190092
 95      -0.000000215267
 96       0.000000239474
 97      -0.000000378800
 98      -0.000000260785
 99       0.000000063837
100      -0.000000203709
101      -0.000000093989
102       0.000000308673
103      -0.000000135400
104      -0.000000296703
105       0.000000045821
106      -0.000000245312
107       0.000000942889
108       0.000000435037
109      -0.000001428725
110       0.000000626712
111       0.000001373317
112      -0.000000212086
113       0.000001135453
114      -0.000001498541
115      -0.000000691408
116       0.000002270683
117      -0.000000996038
118      -0.000002182624
119       0.000000337070
120      -0.000001804585
121      -0.000000000000
122       0.000000000000
123      -0.000000000000
124       0.000000000001
125       0.000000000001
126       0.000000000001
127       0.000000686698
128       0.000000876096
129      -0.000001974584
130      -0.000001782448
131      -0.000002274064
132       0.000005125385
133       0.000002953408
134       0.000003767986
135      -0.000008492451
136       0.000001207954
137      -0.000001343792
138       0.000002125606
139       0.000001463375
140      -0.000000358218
141      -0.000003579162
142       0.000003981649
143      -0.000006298161
144      -0.000004335975
145       0.000001061400
146      -0.000001276613
147      -0.000000589014
148       0.000001934405
149      -0.000000848529
150      -0.000001859386
151       0.000000287152
152      -0.000001537333
 Sym=     1a
 Ene= -2.66209033571215E+02
 Spin= Alpha
 Occup= 1.000000
  1       0.000000000000
  2       0.000000000000
  3       0.000000000000
  4       0.000000000000
  5       0.000000000000
  6       0.000000000000
  7      -0.000000000001
  8      -0.000000000001
  9      -0.000000000000
 10       0.000000000000
 11       0.000000000000
 12      -0.000000000001
 13       0.000000000002
 14      -0.000000000002
 15       0.000000000002
 16       0.000000000001
 17      -0.000000000001
 18       0.000000000000
 19       0.305779098558
 20       0.095674999586
 21       0.148790079923
 22       0.415137819747
 23       0.129892170262
 24       0.202003307848
 25       0.264614203906
 26       0.082794945660
 27       0.128759515394
 28       0.014121555594
 29       0.004418483251
 30       0.006871455228
 31       0.004796334993
 32       0.001500721765
 33       0.002333864775
 34      -0.003286277471
 35      -0.001028240966
 36      -0.001599080807
 37       0.001956911390
 38       0.000612296582
 39       0.000952220095
 40      -0.001168912602
 41      -0.000365740215
 42      -0.000568785115
 43       0.000679182712
 44       0.000212508986
 45       0.000330485801
 46      -0.000375430313
 47      -0.000117468117
 48      -0.000182681899
 49       0.000179116169
 50       0.000056043528
 51       0.000087156739
 52      -0.000056969149
 53      -0.000017825036
 54      -0.000027720810
 55       0.000000115639
 56       0.000000031783
 57       0.000000276040
 58      -0.000000366551
 59       0.000000411274
 60      -0.000000334308
 61      -0.000000091883
 62      -0.000000798020
 63       0.000001059686
 64      -0.000001188976
 65      -0.000000154793
 66      -0.000000042545
 67      -0.000000369505
 68       0.000000490665
 69      -0.000000550528
 70       0.000000145168
 71       0.000000039899
 72       0.000000346530
 73      -0.000000460156
 74       0.000000516297
 75      -0.000000362076
 76      -0.000000099515
 77      -0.000000864307
 78       0.000001147709
 79      -0.000001287736
 80       0.000000521005
 81       0.000000143196
 82       0.000001243684
 83      -0.000001651482
 84       0.000001852972
 85      -0.000000582256
 86      -0.000000160031
 87      -0.000001389895
 88       0.000001845634
 89      -0.000002070813
 90      -0.000000309934
 91      -0.000000085184
 92      -0.000000739839
 93       0.000000982428
 94      -0.000001102290
 95       0.000000104083
 96       0.000000028607
 97       0.000000248456
 98      -0.000000329923
 99       0.000000370175
100       0.000000098496
101       0.000000142065
102      -0.000000105549
103       0.000000246095
104      -0.000000015395
105      -0.000000187140
106      -0.000000421200
107      -0.000000455895
108      -0.000000657562
109       0.000000488544
110      -0.000001139074
111       0.000000071257
112       0.000000866193
113       0.000001949563
114       0.000000724557
115       0.000001045069
116      -0.000000776447
117       0.000001810339
118      -0.000000113249
119      -0.000001376648
120      -0.000003098455
121       0.000000000000
122      -0.000000000000
123       0.000000000000
124       0.000000000000
125       0.000000000000
126      -0.000000000001
127       0.000001962064
128       0.000000613908
129       0.000000954727
130      -0.000005092886
131      -0.000001593508
132      -0.000002478164
133       0.000008438602
134       0.000002640348
135       0.000004106168
136      -0.000000584055
137      -0.000000160525
138      -0.000001394190
139       0.000001851337
140      -0.000002077213
141       0.000001730554
142       0.000000475636
143       0.000004130978
144      -0.000005485504
145       0.000006154774
146       0.000000617253
147       0.000000890298
148      -0.000000661458
149       0.000001542235
150      -0.000000096477
151      -0.000001172772
152      -0.000002639587
 Sym=     1a
 Ene= -2.66208892710058E+02
 Spin= Alpha
 Occup= 1.000000
  1       0.000000283207
  2       0.000000323513
  3       0.000000731847
  4       0.000000974466
  5       0.000002505902
  6      -0.000000890234
  7       0.000001064697
  8      -0.000009706775
  9       0.000003287265
 10      -0.000023494792
 11       0.000042309334
 12      -0.000067450777
 13       0.000107447517
 14      -0.000145797551
 15       0.000107373512
 16       0.000008767778
 17      -0.000028023608
 18       0.000006551601
 19      -0.140851881359
 20       0.311444814005
 21       0.089200025083
 22      -0.191225665350
 23       0.422828869612
 24       0.121101216265
 25      -0.121889986773
 26       0.269517197024
 27       0.077191655323
 28      -0.006501924931
 29       0.014376739459
 30       0.004117601137
 31      -0.002214700823
 32       0.004897038502
 33       0.001402546896
 34       0.001523474785
 35      -0.003368633181
 36      -0.000964800667
 37      -0.000919363078
 38       0.002032850823
 39       0.000582223034
 40       0.000570157883
 41      -0.001260705321
 42      -0.000361075033
 43      -0.000350627266
 44       0.000775289923
 45       0.000222048587
 46       0.000177839953
 47      -0.000393231036
 48      -0.000112624185
 49      -0.000077170302
 50       0.000170635209
 51       0.000048871146
 52       0.000024703424
 53      -0.000054623006
 54      -0.000015644420
 55      -0.000000240483
 56      -0.000000103703
 57       0.000000229312
 58      -0.000000318441
 59      -0.000000362093
 60       0.000000252816
 61       0.000000109027
 62      -0.000000241073
 63       0.000000334779
 64       0.000000380669
 65       0.000003247674
 66       0.000001400544
 67      -0.000003096816
 68       0.000004300546
 69       0.000004890046
 70      -0.000007248644
 71      -0.000003125944
 72       0.000006911937
 73      -0.000009598605
 74      -0.000010914338
 75       0.000015779722
 76       0.000006804933
 77      -0.000015046737
 78       0.000020895400
 79       0.000023759646
 80      -0.000024734380
 81      -0.000010666588
 82       0.000023585442
 83      -0.000032753098
 84      -0.000037242743
 85       0.000003126348
 86       0.000001348223
 87      -0.000002981126
 88       0.000004139888
 89       0.000004707365
 90       0.000005678408
 91       0.000002448787
 92      -0.000005414639
 93       0.000007519309
 94       0.000008550021
 95      -0.000001749301
 96      -0.000000754378
 97       0.000001668044
 98      -0.000002316412
 99      -0.000002633935
100       0.000002173017
101      -0.000001067716
102       0.000002360882
103       0.000001940751
104       0.000002206780
105       0.000004396671
106      -0.000001343775
107      -0.000012593745
108       0.000006187960
109      -0.000013682516
110      -0.000011247643
111      -0.000012789418
112      -0.000025480954
113       0.000007787867
114       0.000005432082
115      -0.000002669064
116       0.000005901704
117       0.000004851466
118       0.000005516482
119       0.000010990745
120      -0.000003359154
121      -0.000001421523
122       0.000007385888
123      -0.000014894271
124       0.000042021254
125       0.000046672166
126       0.000005718916
127       0.000005920242
128      -0.000013090552
129      -0.000003749228
130      -0.000022690084
131       0.000050171209
132       0.000014369394
133      -0.000012082571
134       0.000026716392
135       0.000007651766
136      -0.000004131682
137      -0.000001781769
138       0.000003939761
139      -0.000005471145
140      -0.000006221104
141       0.000018254463
142       0.000007872154
143      -0.000017406524
144       0.000024172436
145       0.000027485882
146      -0.000001209196
147       0.000000594141
148      -0.000001313735
149      -0.000001079949
150      -0.000001227984
151      -0.000002446570
152       0.000000747757
 Sym=     1a
 Ene= -6.75852699087801E+01
 Spin= Alpha
 Occup= 1.000000
  1       0.014747768405
  2       0.018642846623
  3       0.034179647152
  4       0.070892758850
  5       0.105083155154
  6       0.041182232974
  7      -0.349292183713
  8      -0.695494603369
  9       0.388072226375
 10       0.927536797192
 11       0.060362394545
 12       0.033294440606
 13      -0.022278004701
 14       0.015073059292
 15      -0.009779106168
 16       0.005719618516
 17      -0.002514663747
 18       0.000680297579
 19      -0.000005447297
 20       0.000012044792
 21       0.000003449716
 22      -0.000007082967
 23       0.000015661502
 24       0.000004485568
 25      -0.000004809264
 26       0.000010634009
 27       0.000003045657
 28       0.000018260814
 29      -0.000040377396
 30      -0.000011564380
 31       0.000029030615
 32      -0.000064191067
 33      -0.000018384783
 34      -0.000028670172
 35       0.000063394089
 36       0.000018156521
 37       0.000038774219
 38      -0.000085735666
 39      -0.000024555308
 40      -0.000064084409
 41       0.000141700327
 42       0.000040583989
 43       0.000086818586
 44      -0.000191969034
 45      -0.000054981308
 46      -0.000128583342
 47       0.000284317230
 48       0.000081430493
 49       0.000024735378
 50      -0.000054693666
 51      -0.000015664658
 52      -0.000005171102
 53       0.000011434089
 54       0.000003274805
 55       0.000008407091
 56       0.000003625441
 57      -0.000008016573
 58       0.000011132518
 59       0.000012658547
 60       0.000010735820
 61       0.000004629671
 62      -0.000010237130
 63       0.000014216173
 64       0.000016164910
 65      -0.000001694510
 66      -0.000000730736
 67       0.000001615799
 68      -0.000002243839
 69      -0.000002551425
 70       0.000013662893
 71       0.000005892067
 72      -0.000013028238
 73       0.000018092316
 74       0.000020572328
 75      -0.000028899150
 76      -0.000012462623
 77       0.000027556752
 78      -0.000038268053
 79      -0.000043513665
 80       0.000045015874
 81       0.000019412889
 82      -0.000042924836
 83       0.000059609712
 84       0.000067780740
 85      -0.000079205308
 86      -0.000034156929
 87       0.000075526135
 88      -0.000104883131
 89      -0.000119260031
 90       0.000010038105
 91       0.000004328889
 92      -0.000009571824
 93       0.000013292392
 94       0.000015114452
 95      -0.000001873332
 96      -0.000000807867
 97       0.000001786314
 98      -0.000002480654
 99      -0.000002820691
100      -0.000006087933
101       0.000002991304
102      -0.000006614260
103      -0.000005437199
104      -0.000006182557
105      -0.000012317771
106       0.000003764752
107       0.000017936488
108      -0.000008813123
109       0.000019487160
110       0.000016019315
111       0.000018215184
112       0.000036290952
113      -0.000011091782
114      -0.000032900166
115       0.000016165557
116      -0.000035744497
117      -0.000029383580
118      -0.000033411352
119      -0.000066566991
120       0.000020345192
121       0.000003160390
122      -0.000020964540
123       0.000046804073
124      -0.000150523023
125      -0.000272673930
126      -0.000400953228
127      -0.000014269357
128       0.000031551707
129       0.000009036635
130       0.000060693918
131      -0.000134203440
132      -0.000038436828
133      -0.000054265438
134       0.000119989097
135       0.000034365738
136       0.000007027616
137       0.000003030627
138      -0.000006701175
139       0.000009305921
140       0.000010581534
141      -0.000036177334
142      -0.000015601310
143       0.000034496858
144      -0.000047905779
145      -0.000054472484
146       0.000002631784
147      -0.000001293132
148       0.000002859312
149       0.000002350482
150       0.000002672675
151       0.000005324896
152      -0.000001627474
 Sym=     1a
 Ene= -5.72976955592007E+01
 Spin= Alpha
 Occup= 1.000000
  1       0.000000000000
  2       0.000000000000
  3       0.000000000000
  4       0.000000000001
  5       0.000000000001
  6       0.000000000000
  7      -0.000000000004
  8      -0.000000000008
  9       0.000000000007
 10       0.000000000005
 11       0.000000000008
 12      -0.000000000012
 13       0.000000000020
 14      -0.000000000023
 15       0.000000000014
 16       0.000000000005
 17      -0.000000000004
 18       0.000000000001
 19       0.058957947446
 20       0.072883593005
 21      -0.161377537287
 22       0.090939743170
 23       0.112419368657
 24      -0.248916938768
 25       0.003541613131
 26       0.004378128840
 27      -0.009693973924
 28      -0.224483304734
 29      -0.277505417461
 30       0.614447490952
 31      -0.119452307116
 32      -0.147666493023
 33       0.326960485914
 34       0.005138084077
 35       0.006351680216
 36      -0.014063775800
 37      -0.005449445222
 38      -0.006736583680
 39       0.014916022130
 40       0.003138399274
 41       0.003879677359
 42      -0.008590311686
 43      -0.001824453421
 44      -0.002255382436
 45       0.004993827157
 46       0.001011641241
 47       0.001250587098
 48      -0.002769027403
 49      -0.000483752590
 50      -0.000598013135
 51       0.001324109897
 52       0.000154059773
 53       0.000190448113
 54      -0.000421686776
 55      -0.000012017705
 56       0.000013491064
 57      -0.000021092101
 58      -0.000014943924
 59       0.000003902498
 60      -0.000018285995
 61       0.000020527838
 62      -0.000032093485
 63      -0.000022738493
 64       0.000005937995
 65       0.000002711405
 66      -0.000003043818
 67       0.000004758745
 68       0.000003371614
 69      -0.000000880475
 70       0.000003895654
 71      -0.000004373259
 72       0.000006837210
 73       0.000004844208
 74      -0.000001265032
 75      -0.000005949471
 76       0.000006678873
 77      -0.000010441841
 78      -0.000007398114
 79       0.000001931969
 80       0.000008032682
 81      -0.000009017485
 82       0.000014098059
 83       0.000009988569
 84      -0.000002608450
 85      -0.000008992912
 86       0.000010095432
 87      -0.000015783337
 88      -0.000011182609
 89       0.000002920258
 90      -0.000004649486
 91       0.000005219508
 92      -0.000008160251
 93      -0.000005781596
 94       0.000001509823
 95       0.000001560152
 96      -0.000001751425
 97       0.000002738201
 98       0.000001940035
 99      -0.000000506627
100       0.000003960280
101       0.000001798793