[Molden Format]
[Title]
 Molden file created by orca_2mkl for BaseName=/home/nikolayandreadi_2125/_scratch/F1_cc/Yb_F1_cc

[Atoms] AU
Yb   1  70          0.0185797873        -0.5800854519        -1.5259557429 
F    2   9         -1.4808630979         2.7354144836        -0.5763740298 
[GTO]
  1 0
s   6 1.0 
  1358076.4019249999      2707.2930152518
   603589.5119670000      -738.3436407800
   268262.0053190000      1561.8093109918
   119227.5579190000       321.3188957239
    52990.0257420000       910.2592971992
    23551.1225520000       650.0002417902
s   1 1.0 
    10467.1655790000       737.5337741991
s   1 1.0 
     4652.0735910000       401.4625366565
s   1 1.0 
     2067.5882620000       218.5285256475
s   1 1.0 
      918.9281170000       118.9518627382
s   1 1.0 
      408.4124960000        64.7491927610
s   1 1.0 
      181.5166650000        35.2449963543
s   1 1.0 
       80.6740730000        19.1849459526
s   1 1.0 
       35.8551440000        10.4429619475
s   1 1.0 
       15.9356190000         5.6844283346
s   1 1.0 
        7.0824980000         3.0942110849
s   1 1.0 
        3.1477770000         1.6842752256
s   1 1.0 
        1.3990120000         0.9168033087
s   1 1.0 
        0.6217830000         0.4990444444
s   1 1.0 
        0.2763480000         0.2716453884
s   1 1.0 
        0.1228210000         0.1478647196
s   1 1.0 
        0.0545870000         0.0804872358
s   1 1.0 
        0.0242610000         0.0438118524
p   5 1.0 
    18741.9577990000      4543.1010834218
     7496.7831200000      1702.6495515717
     2998.7132480000      2688.5302230256
     1199.4852990000      2527.9583676190
      479.7941200000      2363.5203868406
p   1 1.0 
      191.9176480000      1018.2014909638
p   1 1.0 
       76.7670590000       323.8983356454
p   1 1.0 
       30.7068240000       103.0347478518
p   1 1.0 
       12.2827290000        32.7762056036
p   1 1.0 
        4.9130920000        10.4263838277
p   1 1.0 
        1.9652370000         3.3167195680
p   1 1.0 
        0.7860950000         1.0550763307
p   1 1.0 
        0.3144380000         0.3356285290
p   1 1.0 
        0.1257750000         0.1067660057
p   1 1.0 
        0.0503100000         0.0339631517
p   1 1.0 
        0.0201240000         0.0108039602
d   4 1.0 
     1379.8152340000      7325.4223721174
      501.7509940000      6870.7279056516
      182.4549070000      6434.1168847394
       66.3472390000      3527.4353518373
d   1 1.0 
       24.1262690000       748.7345495231
d   1 1.0 
        8.7731890000       127.4957426618
d   1 1.0 
        3.1902500000        21.7101757349
d   1 1.0 
        1.1600910000         3.6968445084
d   1 1.0 
        0.4218510000         0.6295039778
d   1 1.0 
        0.1534000000         0.1071925155
d   1 1.0 
        0.0557820000         0.0182530198
d   1 1.0 
        0.0202840000         0.0031080564
f   4 1.0 
       41.1409390000      2636.1638558181
       13.7136460000       730.3196574878
        4.5712150000        90.4591085871
        1.5237380000         5.2735892425
f   1 1.0 
        0.5079130000         1.2417268408
f   1 1.0 
        0.1693040000         0.1048337984

  2 0
s   6 1.0 
    35479.1004410000         1.9229128581
     5318.4728983000         2.2734773358
     1210.4810975000         3.4747482552
      342.8551814000         5.2879612972
      112.0194318100         7.1666332516
       40.7147402500         7.7556346254
s   1 1.0 
       16.0396781100         5.7122450312
s   1 1.0 
        6.5038186700         2.9025947842
s   1 1.0 
        1.5440477500         0.9872011154
s   1 1.0 
        0.6122345300        -0.4932856223
s   1 1.0 
        0.2402798000         0.2445952611
p   4 1.0 
       80.2339004800         4.2755032106
       18.5940107400         4.7314752302
        5.6867902700         4.0864798013
        1.9511006300         2.2989954518
p   1 1.0 
        0.6697021100         0.8635593126
p   1 1.0 
        0.2165130000         0.2105208234
d   1 1.0 
        3.1070000000        20.7284714039
d   1 1.0 
        0.8550000000         2.1672588463
f   1 1.0 
        1.9170000000        24.6547062912

[5D]
[7F]
[9G]
[MO]
 Sym=     1a
 Ene= -2.26117932365333E+03
 Spin= Alpha
 Occup= 1.000000
  1       0.097624466833
  2       0.105338270684
  3       0.178974461464
  4       0.301054255099
  5       0.331950349205
  6       0.165095689535
  7       0.008757879909
  8       0.003428598853
  9      -0.002492833809
 10       0.001651334068
 11      -0.001106782462
 12       0.000738147423
 13      -0.000484566156
 14       0.000315318027
 15      -0.000202375724
 16       0.000121069804
 17      -0.000049696641
 18       0.000013051018
 19       0.000000262094
 20      -0.000000579517
 21      -0.000000165984
 22      -0.000000147192
 23       0.000000325457
 24       0.000000093216
 25       0.000000172017
 26      -0.000000380352
 27      -0.000000108938
 28      -0.000000209550
 29       0.000000463345
 30       0.000000132707
 31       0.000000313683
 32      -0.000000693600
 33      -0.000000198653
 34      -0.000000513948
 35       0.000001136417
 36       0.000000325478
 37       0.000000880469
 38      -0.000001946852
 39      -0.000000557592
 40      -0.000001475229
 41       0.000003261960
 42       0.000000934248
 43       0.000002399042
 44      -0.000005304652
 45      -0.000001519288
 46      -0.000005026958
 47       0.000011115382
 48       0.000003183521
 49       0.000000860139
 50      -0.000001901901
 51      -0.000000544717
 52      -0.000000112925
 53       0.000000249694
 54       0.000000071514
 55      -0.000000009825
 56       0.000000003517
 57       0.000000012569
 58      -0.000000010710
 59      -0.000000015490
 60       0.000000066201
 61       0.000000031204
 62      -0.000000062030
 63       0.000000088451
 64       0.000000099441
 65      -0.000000161482
 66      -0.000000076313
 67       0.000000151225
 68      -0.000000215813
 69      -0.000000242544
 70       0.000000339483
 71       0.000000150232
 72      -0.000000322132
 73       0.000000450679
 74       0.000000510817
 75      -0.000000657910
 76      -0.000000283839
 77       0.000000627299
 78      -0.000000871236
 79      -0.000000990608
 80       0.000001096101
 81       0.000000472949
 82      -0.000001045077
 83       0.000001451529
 84       0.000001650383
 85      -0.000002941556
 86      -0.000001269199
 87       0.000002804638
 88      -0.000003895391
 89      -0.000004429057
 90       0.000000288426
 91       0.000000124280
 92      -0.000000275070
 93       0.000000381901
 94       0.000000434293
 95       0.000000008469
 96       0.000000003596
 97      -0.000000008099
 98       0.000000011198
 99       0.000000012757
100      -0.000000058325
101       0.000000028384
102      -0.000000063488
103      -0.000000051598
104      -0.000000059693
105      -0.000000118004
106       0.000000036308
107       0.000000308293
108      -0.000000151118
109       0.000000335106
110       0.000000274688
111       0.000000313694
112       0.000000623763
113      -0.000000190966
114      -0.000001047961
115       0.000000514902
116      -0.000001138570
117      -0.000000935921
118      -0.000001064270
119      -0.000002120343
120       0.000000648069
121       0.000000169096
122      -0.000000771717
123       0.000001440912
124      -0.000003838068
125      -0.000006953162
126      -0.000014217055
127      -0.000000316152
128       0.000000699061
129       0.000000200216
130       0.000001077455
131      -0.000002382420
132      -0.000000682341
133      -0.000002826260
134       0.000006249298
135       0.000001789842
136       0.000000160585
137       0.000000069248
138      -0.000000153127
139       0.000000212645
140       0.000000241794
141      -0.000000725265
142      -0.000000312751
143       0.000000691581
144      -0.000000960387
145      -0.000001092036
146       0.000000178997
147      -0.000000087949
148       0.000000194472
149       0.000000159863
150       0.000000181779
151       0.000000362165
152      -0.000000110692
 Sym=     1a
 Ene= -3.88380866551626E+02
 Spin= Alpha
 Occup= 1.000000
  1      -0.037450512169
  2      -0.044756037832
  3      -0.076790264211
  4      -0.152423804627
  5      -0.201601096389
  6      -0.062881046687
  7       0.493389013352
  8       0.582350831804
  9       0.081713856683
 10       0.004942929358
 11      -0.004320482583
 12       0.003026556595
 13      -0.002114120607
 14       0.001415502656
 15      -0.000915193379
 16       0.000550621135
 17      -0.000226512929
 18       0.000059541554
 19       0.000005949015
 20      -0.000013153885
 21      -0.000003767515
 22       0.000008309154
 23      -0.000018372383
 24      -0.000005262197
 25       0.000007129530
 26      -0.000015764104
 27      -0.000004515140
 28       0.000001131579
 29      -0.000002502025
 30      -0.000000716630
 31       0.000001012331
 32      -0.000002238421
 33      -0.000000641100
 34      -0.000002068083
 35       0.000004572854
 36       0.000001309695
 37       0.000003804130
 38      -0.000008411525
 39      -0.000002409115
 40      -0.000006607741
 41       0.000014610739
 42       0.000004184613
 43       0.000010922044
 44      -0.000024150327
 45      -0.000006916817
 46      -0.000022912552
 47       0.000050663195
 48       0.000014510282
 49       0.000003919022
 50      -0.000008665564
 51      -0.000002481876
 52      -0.000000514073
 53       0.000001136695
 54       0.000000325557
 55      -0.000000005571
 56       0.000000428324
 57       0.000000183096
 58       0.000000120385
 59      -0.000000047122
 60       0.000000172009
 61      -0.000000057736
 62      -0.000000218466
 63       0.000000188646
 64       0.000000270856
 65      -0.000000701068
 66      -0.000000077223
 67       0.000000761416
 68      -0.000000861580
 69      -0.000001075845
 70       0.000001484697
 71       0.000000517324
 72      -0.000001466475
 73       0.000001929560
 74       0.000002246572
 75      -0.000002975777
 76      -0.000001270450
 77       0.000002842844
 78      -0.000003936700
 79      -0.000004481799
 80       0.000005002314
 81       0.000002143985
 82      -0.000004775408
 83       0.000006620110
 84       0.000007533202
 85      -0.000013430048
 86      -0.000005770276
 87       0.000012815008
 88      -0.000017777659
 89      -0.000020223619
 90       0.000001318986
 91       0.000000569645
 92      -0.000001257370
 93       0.000001746843
 94       0.000001985929
 95       0.000000036891
 96       0.000000018126
 97      -0.000000034262
 98       0.000000049508
 99       0.000000055347
100      -0.000000273536
101       0.000000142464
102      -0.000000293637
103      -0.000000258823
104      -0.000000264178
105      -0.000000553586
106       0.000000162063
107       0.000001436173
108      -0.000000716165
109       0.000001555718
110       0.000001301579
111       0.000001440765
112       0.000002905995
113      -0.000000878890
114      -0.000004794734
115       0.000002356763
116      -0.000005208887
117      -0.000004283796
118      -0.000004867774
119      -0.000009701216
120       0.000002964286
121       0.000000656070
122      -0.000003236660
123       0.000006315416
124      -0.000017300072
125      -0.000031414132
126      -0.000064734608
127      -0.000001454435
128       0.000003215981
129       0.000000921079
130       0.000004877437
131      -0.000010784767
132      -0.000003088831
133      -0.000012878091
134       0.000028475450
135       0.000008155563
136       0.000000747898
137       0.000000322663
138      -0.000000713101
139       0.000000990403
140       0.000001126102
141      -0.000003327892
142      -0.000001435675
143       0.000003173081
144      -0.000004406936
145      -0.000005010777
146       0.000000821959
147      -0.000000403896
148       0.000000893011
149       0.000000734148
150       0.000000834687
151       0.000001663072
152      -0.000000508274
 Sym=     1a
 Ene= -3.43326455533352E+02
 Spin= Alpha
 Occup= 1.000000
  1      -0.000000000034
  2      -0.000000000041
  3      -0.000000000070
  4      -0.000000000143
  5      -0.000000000181
  6      -0.000000000062
  7       0.000000000538
  8       0.000000000475
  9       0.000000000023
 10      -0.000000000138
 11       0.000000000251
 12      -0.000000000405
 13       0.000000000636
 14      -0.000000000883
 15       0.000000000972
 16      -0.000000000696
 17      -0.000000000060
 18       0.000000000040
 19      -0.200229281247
 20      -0.163574012346
 21       0.254958676112
 22      -0.264427540251
 23      -0.216019722342
 24       0.336704477845
 25      -0.164702089508
 26      -0.134550658418
 27       0.209720708352
 28      -0.007377963312
 29      -0.006027305607
 30       0.009394608763
 31      -0.003175619622
 32      -0.002594270055
 33       0.004043623223
 34       0.002159170422
 35       0.001763898547
 36      -0.002749344262
 37      -0.001290001342
 38      -0.001053845059
 39       0.001642602022
 40       0.000768503864
 41       0.000627816093
 42      -0.000978561709
 43      -0.000446004429
 44      -0.000364355330
 45       0.000567912300
 46       0.000246134392
 47       0.000201074653
 48      -0.000313411031
 49      -0.000117267736
 50      -0.000095799867
 51       0.000149320934
 52       0.000037350180
 53       0.000030512613
 54      -0.000047559239
 55      -0.000002025488
 56       0.000002765028
 57      -0.000003332745
 58      -0.000004069758
 59       0.000002021849
 60       0.000000014102
 61      -0.000000019261
 62       0.000000023232
 63       0.000000028340
 64      -0.000000014105
 65      -0.000000473129
 66       0.000000645903
 67      -0.000000778547
 68      -0.000000950663
 69       0.000000472333
 70       0.000000337619
 71      -0.000000460947
 72       0.000000555626
 73       0.000000678398
 74      -0.000000337113
 75      -0.000000431116
 76       0.000000588641
 77      -0.000000709557
 78      -0.000000866284
 79       0.000000430526
 80       0.000000543388
 81      -0.000000741967
 82       0.000000894388
 83       0.000001091897
 84      -0.000000542690
 85      -0.000000514907
 86       0.000000703150
 87      -0.000000847614
 88      -0.000001034695
 89       0.000000514346
 90      -0.000000924159
 91       0.000001261571
 92      -0.000001520658
 93      -0.000001856908
 94       0.000000922528
 95       0.000000260979
 96      -0.000000356271
 97       0.000000429440
 98       0.000000524386
 99      -0.000000260530
100       0.000000128375
101       0.000000067979
102      -0.000000154361
103       0.000000028135
104       0.000000152617
105       0.000000018752
106       0.000000234886
107      -0.000000566397
108      -0.000000169547
109       0.000000888845
110      -0.000000183079
111      -0.000000969822
112      -0.000000047972
113      -0.000001232996
114       0.000000997175
115       0.000000285693
116      -0.000001585341
117       0.000000328107
118       0.000001736588
119       0.000000081004
120       0.000002190147
121      -0.000000000013
122       0.000000000065
123      -0.000000000127
124       0.000000000333
125       0.000000000482
126       0.000000000752
127      -0.000000776464
128      -0.000000634443
129       0.000000988723
130       0.000001215856
131       0.000000993655
132      -0.000001548271
133      -0.000004535316
134      -0.000003705477
135       0.000005775060
136      -0.000000760231
137       0.000001037733
138      -0.000001250836
139      -0.000001527505
140       0.000000758806
141       0.000002007384
142      -0.000002740067
143       0.000003302737
144       0.000004033342
145      -0.000002003540
146       0.000001219542
147       0.000000344823
148      -0.000001946523
149       0.000000403324
150       0.000002134482
151       0.000000097650
152       0.000002685816
 Sym=     1a
 Ene= -3.43326403125613E+02
 Spin= Alpha
 Occup= 1.000000
  1      -0.000000000001
  2      -0.000000000001
  3      -0.000000000001
  4      -0.000000000003
  5      -0.000000000004
  6      -0.000000000001
  7       0.000000000011
  8       0.000000000010
  9      -0.000000000002
 10      -0.000000000008
 11       0.000000000016
 12      -0.000000000025
 13       0.000000000039
 14      -0.000000000055
 15       0.000000000060
 16      -0.000000000043
 17      -0.000000000004
 18       0.000000000002
 19      -0.266080887482
 20      -0.051097677029
 21      -0.241746771853
 22      -0.351393348442
 23      -0.067480922808
 24      -0.319257081713
 25      -0.218870843852
 26      -0.042031548360
 27      -0.198854267422
 28      -0.009804524393
 29      -0.001882842568
 30      -0.008907863111
 31      -0.004220174080
 32      -0.000810434349
 33      -0.003834223004
 34       0.002869330124
 35       0.000551020792
 36       0.002606918896
 37      -0.001714295131
 38      -0.000329210022
 39      -0.001557516270
 40       0.001021288387
 41       0.000196126290
 42       0.000927887638
 43      -0.000592702550
 44      -0.000113821458
 45      -0.000538497611
 46       0.000327098983
 47       0.000062815437
 48       0.000297184503
 49      -0.000155839332
 50      -0.000029927089
 51      -0.000141587226
 52       0.000049636051
 53       0.000009532014
 54       0.000045096644
 55       0.000001818453
 56      -0.000000502226
 57       0.000003887448
 58      -0.000002599444
 59       0.000003684101
 60       0.000000113612
 61      -0.000000031380
 62       0.000000242879
 63      -0.000000162407
 64       0.000000230173
 65       0.000000343903
 66      -0.000000094983
 67       0.000000735201
 68      -0.000000491608
 69       0.000000696749
 70      -0.000000254308
 71       0.000000070239
 72      -0.000000543669
 73       0.000000363532
 74      -0.000000515239
 75       0.000000395102
 76      -0.000000109124
 77       0.000000844660
 78      -0.000000564793
 79       0.000000800492
 80      -0.000000503582
 81       0.000000139085
 82      -0.000001076572
 83       0.000000719862
 84      -0.000001020279
 85       0.000000478051
 86      -0.000000132032
 87       0.000001021985
 88      -0.000000683360
 89       0.000000968553
 90       0.000000877115
 91      -0.000000242261
 92       0.000001875159
 93      -0.000001253853
 94       0.000001777081
 95      -0.000000248543
 96       0.000000068648
 97      -0.000000531352
 98       0.000000355296
 99      -0.000000503561
100      -0.000000065655
101      -0.000000127478
102       0.000000097635
103      -0.000000196501
104      -0.000000059701
105       0.000000123657
106       0.000000189396
107       0.000000514392
108       0.000000558893
109      -0.000000646562
110       0.000000934451
111       0.000000257440
112      -0.000000647788
113      -0.000001095281
114      -0.000000939292
115      -0.000000995794
116       0.000001173972
117      -0.000001672273
118      -0.000000458256
119       0.000001164803
120       0.000001978136
121      -0.000000000001
122       0.000000000004
123      -0.000000000008
124       0.000000000020
125       0.000000000029
126       0.000000000046
127      -0.000001031195
128      -0.000000198036
129      -0.000000936894
130       0.000001614772
131       0.000000310117
132       0.000001467108
133      -0.000006023951
134      -0.000001156850
135      -0.000005473051
136       0.000000720565
137      -0.000000199023
138       0.000001540481
139      -0.000001030068
140       0.000001459904
141      -0.000001902777
142       0.000000525557
143      -0.000004067917
144       0.000002720080
145      -0.000003855133
146      -0.000001156113
147      -0.000001217014
148       0.000001442628
149      -0.000002046409
150      -0.000000559913
151       0.000001427359
152       0.000002427122
 Sym=     1a
 Ene= -3.43326321200542E+02
 Spin= Alpha
 Occup= 1.000000
  1       0.000001903545
  2       0.000002316863
  3       0.000003805826
  4       0.000008192828
  5       0.000009472468
  6       0.000005052040
  7      -0.000032373923
  8      -0.000022403458
  9      -0.000012279255
 10       0.000029306226
 11      -0.000050850553
 12       0.000082269559
 13      -0.000128589568
 14       0.000177592722
 15      -0.000195066132
 16       0.000139603455
 17       0.000011305808
 18      -0.000007726106
 19       0.144779136339
 20      -0.320132284611
 21      -0.091686622453
 22       0.191198530454
 23      -0.422773777507
 24      -0.121083382021
 25       0.119091726845
 26      -0.263332877654
 27      -0.075419141680
 28       0.005331939112
 29      -0.011789860753
 30      -0.003376643205
 31       0.002301952156
 32      -0.005090023363
 33      -0.001457794444
 34      -0.001571662136
 35       0.003475222810
 36       0.000995311906
 37       0.000951507466
 38      -0.002103950929
 39      -0.000602576570
 40      -0.000587382425
 41       0.001298805753
 42       0.000371981268
 43       0.000364860338
 44      -0.000806769811
 45      -0.000231061149
 46      -0.000229604210
 47       0.000507694375
 48       0.000145405349
 49       0.000090019758
 50      -0.000199049494
 51      -0.000057008284
 52      -0.000027169544
 53       0.000060076666
 54       0.000017206097
 55      -0.000003104969
 56      -0.000001207814
 57       0.000003014945
 58      -0.000004072651
 59      -0.000004687013
 60       0.000000754319
 61       0.000000449103
 62      -0.000000668186
 63       0.000001035586
 64       0.000001124655
 65      -0.000003533337
 66      -0.000001716745
 67       0.000003289548
 68      -0.000004736073
 69      -0.000005302816
 70       0.000007272703
 71       0.000003248707
 72      -0.000006888481
 73       0.000009663811
 74       0.000010940444
 75      -0.000014471898
 76      -0.000006245004
 77       0.000013797959
 78      -0.000019164818
 79      -0.000021790047
 80       0.000021781403
 81       0.000009407402
 82      -0.000020763702
 83       0.000028847056
 84       0.000032795089
 85      -0.000028558065
 86      -0.000012335241
 87       0.000027223327
 88      -0.000037822286
 89      -0.000042998257
 90      -0.000001767798
 91      -0.000000763630
 92       0.000001685139
 93      -0.000002341293
 94      -0.000002661656
 95       0.000001463372
 96       0.000000629153
 97      -0.000001396183
 98       0.000001937222
 99       0.000002203577
100      -0.000001631971
101       0.000000779505
102      -0.000001782908
103      -0.000001417241
104      -0.000001695082
105      -0.000003301586
106       0.000001028877
107       0.000008674362
108      -0.000004249652
109       0.000009429823
110       0.000007724652
111       0.000008830256
112       0.000017550654
113      -0.000005375203
114      -0.000011923537
115       0.000005856971
116      -0.000012955148
117      -0.000010646046
118      -0.000012111631
119      -0.000024124912
120       0.000007374962
121       0.000002596638
122      -0.000012993030
123       0.000025314687
124      -0.000066066525
125      -0.000095604059
126      -0.000149326955
127      -0.000007613193
128       0.000016833934
129       0.000004821359
130       0.000024305874
131      -0.000053744025
132      -0.000015392662
133      -0.000024727606
134       0.000054676487
135       0.000015659749
136       0.000005190679
137       0.000002238320
138      -0.000004949626
139       0.000006873424
140       0.000007815656
141      -0.000020128417
142      -0.000008679750
143       0.000019193653
144      -0.000026653770
145      -0.000030307544
146       0.000003664703
147      -0.000001800611
148       0.000003981541
149       0.000003272915
150       0.000003721720
151       0.000007414795
152      -0.000002266258
 Sym=     1a
 Ene= -8.97663292308660E+01
 Spin= Alpha
 Occup= 1.000000
  1      -0.017727823540
  2      -0.021498855209
  3      -0.037167529059
  4      -0.075225478423
  5      -0.104611616411
  6      -0.026399593938
  7       0.390953471885
  8       0.685600477453
  9      -0.510085503225
 10      -0.875415508974
 11      -0.019701205955
 12      -0.039033862552
 13       0.026059889219
 14      -0.017454519690
 15       0.011441087165
 16      -0.006907070264
 17       0.002850977130
 18      -0.000750969392
 19       0.000038888840
 20      -0.000085987425
 21      -0.000024628254
 22       0.000057051300
 23      -0.000126146602
 24      -0.000036130515
 25       0.000006578007
 26      -0.000014544564
 27      -0.000004165868
 28      -0.000142036544
 29       0.000314057832
 30       0.000089951632
 31      -0.000102953114
 32       0.000227641079
 33       0.000065199950
 34       0.000037588381
 35      -0.000083113122
 36      -0.000023804447
 37      -0.000053511869
 38       0.000118322640
 39       0.000033888587
 40       0.000085040360
 41      -0.000188037185
 42      -0.000053855218
 43      -0.000137149645
 44       0.000303258975
 45       0.000086855471
 46       0.000287693083
 47      -0.000636133806
 48      -0.000182193073
 49      -0.000049810843
 50       0.000110139450
 51       0.000031544697
 52       0.000006626010
 53      -0.000014651125
 54      -0.000004196185
 55      -0.000002296347
 56      -0.000004670750
 57       0.000000670374
 58      -0.000004132568
 59      -0.000003126511
 60      -0.000002164696
 61      -0.000008492213
 62      -0.000001055855
 63      -0.000005108565
 64      -0.000002579582
 65       0.000006486785
 66       0.000002293500
 67      -0.000006393470
 68       0.000008440291
 69       0.000009812524
 70      -0.000017596520
 71      -0.000008176477
 72       0.000016536394
 73      -0.000023475646
 74      -0.000026442297
 75       0.000035897573
 76       0.000014956042
 77      -0.000034446583
 78       0.000047379762
 79       0.000054098355
 80      -0.000061556181
 81      -0.000026385757
 82       0.000058762803
 83      -0.000081464891
 84      -0.000092699875
 85       0.000167886315
 86       0.000072527107
 87      -0.000160035173
 88       0.000222351812
 89       0.000252775935
 90      -0.000016688282
 91      -0.000007080185
 92       0.000015961177
 93      -0.000022063961
 94      -0.000025138119
 95      -0.000000459103
 96      -0.000000200823
 97       0.000000436606
 98      -0.000000608783
 99      -0.000000691019
100       0.000004758654
101      -0.000002400425
102       0.000005142679
103       0.000004362164
104       0.000004727511
105       0.000009629282
106      -0.000002887990
107      -0.000017542265
108       0.000008495437
109      -0.000019113460
110      -0.000015443877
111      -0.000018024111
112      -0.000035491184
113       0.000010957114
114       0.000060185002
115      -0.000029568737
116       0.000065389777
117       0.000053746164
118       0.000061125615
119       0.000121772460
120      -0.000037221034
121      -0.000005207519
122       0.000032210999
123      -0.000069499127
124       0.000207249285
125       0.000384219869
126       0.000805717342
127       0.000017787562
128      -0.000039331050
129      -0.000011264680
130      -0.000060663530
131       0.000134136442
132       0.000038417587
133       0.000161012465
134      -0.000356023452
135      -0.000101967532
136      -0.000009296511
137      -0.000004007504
138       0.000008865313
139      -0.000012309924
140      -0.000013997949
141       0.000041760904
142       0.000018002943
143      -0.000039823581
144       0.000055297713
145       0.000062880185
146      -0.000010156194
147       0.000004990262
148      -0.000011034255
149      -0.000009070636
150      -0.000010313993
151      -0.000020549061
152       0.000006280550
 Sym=     1a
 Ene= -7.58148965635448E+01
 Spin= Alpha
 Occup= 1.000000
  1      -0.000000000019
  2      -0.000000000023
  3      -0.000000000041
  4      -0.000000000080
  5      -0.000000000117
  6      -0.000000000020
  7       0.000000000416
  8       0.000000000838
  9      -0.000000000885
 10      -0.000000000535
 11      -0.000000000416
 12       0.000000000701
 13      -0.000000001242
 14       0.000000001800
 15      -0.000000002018
 16       0.000000001453
 17       0.000000000138
 18      -0.000000000088
 19      -0.144236895204
 20      -0.027698579958
 21      -0.131046177688
 22      -0.216196387968
 23      -0.041517344988
 24      -0.196424848391
 25       0.009625095631
 26       0.001848358410
 27       0.008744863713
 28       0.538295997128
 29       0.103371850189
 30       0.489067882329
 31       0.248933457414
 32       0.047804018876
 33       0.226168055258
 34      -0.012801649799
 35      -0.002458368812
 36      -0.011630916271
 37       0.011212634144
 38       0.002153221453
 39       0.010187218754
 40      -0.006397553933
 41      -0.001228555601
 42      -0.005812485878
 43       0.003698534550
 44       0.000710248239
 45       0.003360296380
 46      -0.002044087051
 47      -0.000392535620
 48      -0.001857150855
 49       0.000975402316
 50       0.000187311578
 51       0.000886199977
 52      -0.000310987964
 53      -0.000059720675
 54      -0.000282547566
 55      -0.000043214753
 56       0.000011935438
 57      -0.000092383979
 58       0.000061774424
 59      -0.000087551627
 60      -0.000054587767
 61       0.000015076590
 62      -0.000116697324
 63       0.000078032010
 64      -0.000110593167
 65      -0.000008074984
 66       0.000002230217
 67      -0.000017262592
 68       0.000011542945
 69      -0.000016359718
 70       0.000002279272
 71      -0.000000629477
 72       0.000004872460
 73      -0.000003258002
 74       0.000004617779
 75      -0.000002886121
 76       0.000000797051
 77      -0.000006169673
 78       0.000004125332
 79      -0.000005847318
 80       0.000003291764
 81      -0.000000909036
 82       0.000007036648
 83      -0.000004704989
 84       0.000006669135
 85      -0.000003126185
 86       0.000000863252
 87      -0.000006682443
 88       0.000004468091
 89      -0.000006333637
 90      -0.000005454361
 91       0.000001506508
 92      -0.000011660672
 93       0.000007797038
 94      -0.000011050791
 95       0.000001540250
 96      -0.000000425413
 97       0.000003292810
 98      -0.000002201767
 99       0.000003120613
100      -0.000000582641
101       0.000002384231