[Molden Format]
[Title]
 Molden file created by orca_2mkl for BaseName=/home/nikolayandreadi_2125/_scratch/F_cc/Ce_F_cc

[Atoms] AU
Ce   1  58          0.1087235034         0.2924729137        -0.5599844350 
F    2   9         -1.4312823533        -2.2795747456        -3.2413073978 
F    3   9         -1.3759020392         3.8953529511         0.3772668151 
F    4   9          4.0218946822        -0.0366096644         0.1822754240 
[GTO]
  1 0
s   6 1.0 
   928839.8476080000      1720.3140985147
   412817.7100480000      -444.1821597056
   183474.5377990000      1020.2336346955
    81544.2390220000       259.7896176938
    36241.8840100000       650.9759730419
    16107.5040040000       521.6380289536
s   1 1.0 
     7158.8906690000       554.6824046748
s   1 1.0 
     3181.7291860000       301.9308579294
s   1 1.0 
     1414.1018600000       164.3503420785
s   1 1.0 
      628.4897160000        89.4609949684
s   1 1.0 
      279.3287630000        48.6963977223
s   1 1.0 
      124.1461170000        26.5069615136
s   1 1.0 
       55.1760520000        14.4285622978
s   1 1.0 
       24.5226900000         7.8539145759
s   1 1.0 
       10.8989730000         4.2751295007
s   1 1.0 
        4.8439880000         2.3270857469
s   1 1.0 
        2.1528840000         1.2667052334
s   1 1.0 
        0.9568370000         0.6895068146
s   1 1.0 
        0.4252610000         0.3753200446
s   1 1.0 
        0.1890050000         0.2042984455
s   1 1.0 
        0.0840020000         0.1112057675
s   1 1.0 
        0.0373340000         0.0605324824
s   1 1.0 
        0.0165930000         0.0329498754
p   5 1.0 
    12451.0879550000      2093.6184468688
     4980.4351820000       918.1890284073
     1992.1740730000      1459.1325391631
      796.8696290000      1489.3345987640
      318.7478520000      1436.7756693929
p   1 1.0 
      127.4991410000       610.6947147288
p   1 1.0 
       50.9996560000       194.2670504300
p   1 1.0 
       20.3998630000        61.7979617804
p   1 1.0 
        8.1599450000        19.6584434383
p   1 1.0 
        3.2639780000         6.2535138558
p   1 1.0 
        1.3055910000         1.9892942277
p   1 1.0 
        0.5222360000         0.6328103822
p   1 1.0 
        0.2088950000         0.2013029523
p   1 1.0 
        0.0835580000         0.0640361382
p   1 1.0 
        0.0334230000         0.0203702742
p   1 1.0 
        0.0133690000         0.0064798319
d   4 1.0 
      837.0672260000      3087.2204500310
      304.3880820000      3007.0563312128
      110.6865750000      2778.8369308977
       40.2496640000      1455.8294057635
d   1 1.0 
       14.6362410000       312.2279657221
d   1 1.0 
        5.3222700000        53.1666948838
d   1 1.0 
        1.9353710000         9.0533119406
d   1 1.0 
        0.7037710000         1.5416116227
d   1 1.0 
        0.2559170000         0.2625086217
d   1 1.0 
        0.0930610000         0.0447006239
d   1 1.0 
        0.0338400000         0.0076115517
d   1 1.0 
        0.0123060000         0.0012962079
f   4 1.0 
       22.0128040000       551.2105701769
        7.3376010000       153.4774832704
        2.4458670000        21.6506471485
        0.8152890000         1.5509273827
f   1 1.0 
        0.2717630000         0.3040383153
f   1 1.0 
        0.0905880000         0.0256690083

  2 0
s   6 1.0 
    35479.1004410000         1.9229128581
     5318.4728983000         2.2734773358
     1210.4810975000         3.4747482552
      342.8551814000         5.2879612972
      112.0194318100         7.1666332516
       40.7147402500         7.7556346254
s   1 1.0 
       16.0396781100         5.7122450312
s   1 1.0 
        6.5038186700         2.9025947842
s   1 1.0 
        1.5440477500         0.9872011154
s   1 1.0 
        0.6122345300        -0.4932856223
s   1 1.0 
        0.2402798000         0.2445952611
p   4 1.0 
       80.2339004800         4.2755032106
       18.5940107400         4.7314752302
        5.6867902700         4.0864798013
        1.9511006300         2.2989954518
p   1 1.0 
        0.6697021100         0.8635593126
p   1 1.0 
        0.2165130000         0.2105208234
d   1 1.0 
        3.1070000000        20.7284714039
d   1 1.0 
        0.8550000000         2.1672588463
f   1 1.0 
        1.9170000000        24.6547062912

  3 0
s   6 1.0 
    35479.1004410000         1.9229128581
     5318.4728983000         2.2734773358
     1210.4810975000         3.4747482552
      342.8551814000         5.2879612972
      112.0194318100         7.1666332516
       40.7147402500         7.7556346254
s   1 1.0 
       16.0396781100         5.7122450312
s   1 1.0 
        6.5038186700         2.9025947842
s   1 1.0 
        1.5440477500         0.9872011154
s   1 1.0 
        0.6122345300        -0.4932856223
s   1 1.0 
        0.2402798000         0.2445952611
p   4 1.0 
       80.2339004800         4.2755032106
       18.5940107400         4.7314752302
        5.6867902700         4.0864798013
        1.9511006300         2.2989954518
p   1 1.0 
        0.6697021100         0.8635593126
p   1 1.0 
        0.2165130000         0.2105208234
d   1 1.0 
        3.1070000000        20.7284714039
d   1 1.0 
        0.8550000000         2.1672588463
f   1 1.0 
        1.9170000000        24.6547062912

  4 0
s   6 1.0 
    35479.1004410000         1.9229128581
     5318.4728983000         2.2734773358
     1210.4810975000         3.4747482552
      342.8551814000         5.2879612972
      112.0194318100         7.1666332516
       40.7147402500         7.7556346254
s   1 1.0 
       16.0396781100         5.7122450312
s   1 1.0 
        6.5038186700         2.9025947842
s   1 1.0 
        1.5440477500         0.9872011154
s   1 1.0 
        0.6122345300        -0.4932856223
s   1 1.0 
        0.2402798000         0.2445952611
p   4 1.0 
       80.2339004800         4.2755032106
       18.5940107400         4.7314752302
        5.6867902700         4.0864798013
        1.9511006300         2.2989954518
p   1 1.0 
        0.6697021100         0.8635593126
p   1 1.0 
        0.2165130000         0.2105208234
d   1 1.0 
        3.1070000000        20.7284714039
d   1 1.0 
        0.8550000000         2.1672588463
f   1 1.0 
        1.9170000000        24.6547062912

[5D]
[7F]
[9G]
[MO]
 Sym=     1a
 Ene= -1.49202346519553E+03
 Spin= Alpha
 Occup= 1.000000
  1      -0.077686696664
  2      -0.091394380232
  3      -0.169313765170
  4      -0.298568746199
  5      -0.348747680500
  6      -0.178986384558
  7      -0.011504774597
  8      -0.003078978045
  9       0.002234841099
 10      -0.001467363596
 11       0.000992520647
 12      -0.000667394466
 13       0.000442628382
 14      -0.000293933065
 15       0.000186819589
 16      -0.000099406331
 17       0.000041024139
 18      -0.000011191554
 19       0.000000175690
 20       0.000000114141
 21      -0.000000173397
 22      -0.000000157207
 23      -0.000000132153
 24       0.000000183816
 25       0.000000111584
 26       0.000000090136
 27      -0.000000131767
 28      -0.000000112342
 29      -0.000000095405
 30       0.000000144415
 31       0.000000141778
 32       0.000000123989
 33      -0.000000193598
 34      -0.000000210940
 35      -0.000000191076
 36       0.000000301485
 37       0.000000371333
 38       0.000000337984
 39      -0.000000532274
 40      -0.000000667565
 41      -0.000000606758
 42       0.000000940061
 43       0.000000896617
 44       0.000000810340
 45      -0.000001234128
 46      -0.000000393176
 47      -0.000000333307
 48       0.000000561178
 49      -0.000000034447
 50      -0.000000040550
 51       0.000000051144
 52       0.000000016304
 53       0.000000016910
 54      -0.000000022377
 55       0.000000036749
 56      -0.000000048133
 57      -0.000000200832
 58       0.000000129047
 59      -0.000000064672
 60      -0.000000117870
 61       0.000000115107
 62       0.000000280024
 63      -0.000000085954
 64       0.000000004148
 65       0.000000280906
 66      -0.000000257389
 67      -0.000000504604
 68       0.000000055562
 69       0.000000083714
 70      -0.000000569386
 71       0.000000510908
 72       0.000000920849
 73      -0.000000021083
 74      -0.000000225290
 75       0.000001194633
 76      -0.000001063573
 77      -0.000001879740
 78      -0.000000000968
 79       0.000000500912
 80      -0.000002088583
 81       0.000001847313
 82       0.000003253899
 83       0.000000021991
 84      -0.000000888944
 85       0.000001186133
 86      -0.000001065297
 87      -0.000001724094
 88      -0.000000143254
 89       0.000000551785
 90       0.000000120851
 91      -0.000000105329
 92      -0.000000191845
 93       0.000000004693
 94       0.000000051524
 95      -0.000000051136
 96       0.000000044705
 97       0.000000078965
 98       0.000000000351
 99      -0.000000022394
100       0.000000081122
101       0.000000158931
102       0.000000221027
103      -0.000000098076
104       0.000000264593
105       0.000000449288
106      -0.000000125527
107      -0.000000517243
108      -0.000001004397
109      -0.000001394040
110       0.000000615755
111      -0.000001661308
112      -0.000002837069
113       0.000000794190
114       0.000000416567
115       0.000000821137
116       0.000001112008
117      -0.000000511663
118       0.000001400627
119       0.000002361919
120      -0.000000648085
121      -0.000000074523
122       0.000000349179
123      -0.000000673337
124       0.000002058413
125       0.000003451936
126       0.000002387796
127       0.000000143754
128       0.000000301312
129       0.000000305648
130      -0.000000819083
131      -0.000001563718
132      -0.000001602007
133      -0.000000652493
134      -0.000000753259
135      -0.000000818898
136       0.000000036088
137       0.000000080958
138       0.000000166505
139      -0.000000061820
140       0.000000076718
141      -0.000000225806
142      -0.000000561314
143      -0.000001023080
144       0.000000344390
145      -0.000000536506
146      -0.000000052595
147       0.000000047190
148       0.000000065348
149      -0.000000037158
150       0.000000094965
151       0.000000034878
152      -0.000000007572
153      -0.000000070134
154       0.000000329614
155      -0.000000639064
156       0.000002000794
157       0.000003429536
158       0.000002356751
159       0.000000119445
160      -0.000000395891
161      -0.000000112206
162      -0.000000747868
163       0.000002154842
164       0.000000591387
165      -0.000000691136
166       0.000001082325
167       0.000000236723
168      -0.000000074094
169      -0.000000021340
170       0.000000079391
171      -0.000000123050
172      -0.000000082422
173       0.000000525606
174       0.000000175202
175      -0.000000500270
176       0.000000786776
177       0.000000672138
178       0.000000054549
179      -0.000000039822
180       0.000000070422
181       0.000000055214
182       0.000000043271
183       0.000000117745
184      -0.000000025834
185      -0.000000066847
186       0.000000315023
187      -0.000000613861
188       0.000001966325
189       0.000003476900
190       0.000002497531
191      -0.000000392606
192       0.000000017154
193      -0.000000067188
194       0.000002269260
195      -0.000000139990
196       0.000000409098
197       0.000001195633
198      -0.000000190850
199       0.000000263427
200      -0.000000071879
201       0.000000043121
202       0.000000003504
203       0.000000125403
204      -0.000000011246
205       0.000000543283
206      -0.000000362843
207       0.000000011956
208      -0.000000982255
209       0.000000138935
210       0.000000055211
211       0.000000097341
212      -0.000000014335
213      -0.000000071450
214       0.000000000626
215       0.000000131714
216      -0.000000044351
 Sym=     1a
 Ene= -2.43071670658706E+02
 Spin= Alpha
 Occup= 1.000000
  1      -0.028253902166
  2      -0.036414986587
  3      -0.068680078505
  4      -0.142823147822
  5      -0.207406171669
  6      -0.102232397639
  7       0.442993964958
  8       0.620737405768
  9       0.115959232377
 10       0.003511911769
 11      -0.002843410224
 12       0.002042908009
 13      -0.001530648192
 14       0.001067795014
 15      -0.000684950960
 16       0.000365209566
 17      -0.000151197187
 18       0.000041358855
 19      -0.000000021344
 20       0.000003419126
 21      -0.000003029699
 22      -0.000000137122
 23       0.000004577732
 24      -0.000004024270
 25      -0.000000499190
 26       0.000003666112
 27      -0.000003053499
 28      -0.000000916066
 29       0.000000463167
 30      -0.000000091370
 31      -0.000000049987
 32      -0.000000130868
 33       0.000000219894
 34       0.000000589316
 35       0.000000619739
 36      -0.000000966870
 37      -0.000001242184
 38      -0.000001152817
 39       0.000001842837
 40       0.000002433972
 41       0.000002223398
 42      -0.000003461539
 43      -0.000003462159
 44      -0.000003110271
 45       0.000004725337
 46       0.000001436182
 47       0.000001208676
 48      -0.000001987603
 49       0.000000151088
 50       0.000000169728
 51      -0.000000236742
 52      -0.000000067014
 53      -0.000000068073
 54       0.000000095920
 55      -0.000004620950
 56       0.000006194515
 57       0.000027826811
 58      -0.000018692138
 59       0.000009790113
 60       0.000000730886
 61      -0.000000696375
 62      -0.000001700036
 63       0.000000472765
 64       0.000000003968
 65      -0.000000641238
 66       0.000000519847
 67       0.000000566156
 68       0.000000396207
 69      -0.000000485827
 70       0.000002088206
 71      -0.000001874873
 72      -0.000003403752
 73       0.000000092960
 74       0.000000806083
 75      -0.000004585063
 76       0.000004080279
 77       0.000007213162
 78       0.000000006613
 79      -0.000001916103
 80       0.000008115668
 81      -0.000007175906
 82      -0.000012632062
 83      -0.000000099048
 84       0.000003452131
 85      -0.000004336478
 86       0.000003878926
 87       0.000006268801
 88       0.000000543858
 89      -0.000002024272
 90      -0.000000492571
 91       0.000000434650
 92       0.000000787699
 93      -0.000000019147
 94      -0.000000208867
 95       0.000000202222
 96      -0.000000178354
 97      -0.000000314379
 98      -0.000000000922
 99       0.000000088183
100      -0.000000369197
101      -0.000000764857
102      -0.000001071464
103       0.000000490141
104      -0.000001232451
105      -0.000002088291
106       0.000000597666
107       0.000002063152
108       0.000004025487
109       0.000005582844
110      -0.000002472313
111       0.000006635677
112       0.000011338345
113      -0.000003177110
114      -0.000001571510
115      -0.000003101198
116      -0.000004195243
117       0.000001928705
118      -0.000005261052
119      -0.000008893885
120       0.000002444428
121       0.000000231771
122      -0.000001186044
123       0.000002452996
124      -0.000007694710
125      -0.000012529917
126      -0.000008077811
127      -0.000000586353
128      -0.000001211914
129      -0.000001231343
130       0.000003088446
131       0.000005905257
132       0.000006036461
133       0.000002583274
134       0.000003078055
135       0.000003343058
136      -0.000000156453
137      -0.000000346282
138      -0.000000703183
139       0.000000260844
140      -0.000000336592
141       0.000000898592
142       0.000002204800
143       0.000004031249
144      -0.000001367985
145       0.000002131098
146       0.000000172342
147      -0.000000147911
148      -0.000000193571
149       0.000000100154
150      -0.000000287255
151      -0.000000092064
152       0.000000027626
153       0.000000219625
154      -0.000001124509
155       0.000002338808
156      -0.000007500057
157      -0.000012482897
158      -0.000008016521
159      -0.000000493051
160       0.000001600387
161       0.000000451497
162       0.000002818595
163      -0.000008130985
164      -0.000002241966
165       0.000002713337
166      -0.000004402653
167      -0.000000973005
168       0.000000319966
169       0.000000101591
170      -0.000000337443
171       0.000000529712
172       0.000000367354
173      -0.000002070928
174      -0.000000711203
175       0.000001976966
176      -0.000003122373
177      -0.000002656064
178      -0.000000168671
179       0.000000133267
180      -0.000000220989
181      -0.000000174149
182      -0.000000125108
183      -0.000000367238
184       0.000000060945
185       0.000000210584
186      -0.000001079704
187       0.000002256563
188      -0.000007391369
189      -0.000012694743
190      -0.000008575922
191       0.000001598244
192      -0.000000073782
193       0.000000275101
194      -0.000008575464
195       0.000000529599
196      -0.000001551175
197      -0.000004847786
198       0.000000738843
199      -0.000001046256
200       0.000000317070
201      -0.000000195075
202      -0.000000005317
203      -0.000000563294
204       0.000000055030
205      -0.000002153224
206       0.000001441965
207      -0.000000065071
208       0.000003912440
209      -0.000000549715
210      -0.000000177202
211      -0.000000308788
212       0.000000049710
213       0.000000228850
214       0.000000008084
215      -0.000000407828
216       0.000000146269
 Sym=     1a
 Ene= -2.17808955993308E+02
 Spin= Alpha
 Occup= 1.000000
  1      -0.000000106720
  2      -0.000000135923
  3      -0.000000264689
  4      -0.000000521279
  5      -0.000000833593
  6      -0.000000271536
  7       0.000001486591
  8       0.000002571483
  9       0.000000014526
 10       0.000001089170
 11      -0.000002038830
 12       0.000003151805
 13      -0.000005207541
 14       0.000007878891
 15      -0.000004807836
 16      -0.000006352496
 17       0.000004000573
 18      -0.000000973480
 19      -0.068660651508
 20      -0.288057970365
 21      -0.181554081314
 22      -0.094718593421
 23      -0.397380876103
 24      -0.250456879671
 25      -0.061294648765
 26      -0.257154545613
 27      -0.162076617193
 28      -0.003673004248
 29      -0.015408813744
 30      -0.009711365101
 31      -0.001064983674
 32      -0.004469307140
 33      -0.002817390042
 34       0.000740397879
 35       0.003108590778
 36       0.001960213532
 37      -0.000447203811
 38      -0.001880607981
 39      -0.001187090999
 40       0.000284709910
 41       0.001202760778
 42       0.000761420203
 43      -0.000182980692
 44      -0.000778957527
 45      -0.000495085008
 46       0.000074189825
 47       0.000312596192
 48       0.000195315579
 49      -0.000030951692
 50      -0.000127775438
 51      -0.000079271875
 52       0.000010103262
 53       0.000041738093
 54       0.000025951837
 55       0.000001870710
 56       0.000000841907
 57       0.000000780517
 58       0.000001094278
 59       0.000000933163
 60       0.000000814501
 61       0.000000977758
 62       0.000000872639
 63       0.000000201437
 64       0.000001553904
 65      -0.000003796448
 66      -0.000002838934
 67      -0.000002635357
 68      -0.000000319973
 69      -0.000005454313
 70       0.000010182713
 71       0.000008009609
 72       0.000007350750
 73       0.000001133801
 74       0.000014964287
 75      -0.000023559827
 76      -0.000018513064
 77      -0.000016818414
 78      -0.000002520561
 79      -0.000034878516
 80       0.000044871666
 81       0.000035146836
 82       0.000031740075
 83       0.000004817675
 84       0.000066545596
 85       0.000011138992
 86       0.000009593448
 87       0.000008339788
 88       0.000000330598
 89       0.000018583401
 90      -0.000011769609
 91      -0.000009307168
 92      -0.000008366548
 93      -0.000001103989
 94      -0.000017747023
 95       0.000003676415
 96       0.000002892541
 97       0.000002600700
 98       0.000000352738
 99       0.000005518440
100      -0.000002823697
101       0.000001933795
102       0.000000599483
103      -0.000001912158
104       0.000001701844
105      -0.000003340256
106       0.000000976215
107       0.000027704395
108      -0.000013970078
109      -0.000007109723
110       0.000023911382
111      -0.000016874050
112       0.000018363271
113      -0.000012052121
114      -0.000009058254
115       0.000002590883
116       0.000001378089
117      -0.000007144634
118       0.000003762268
119      -0.000003081141
120       0.000002820600
121      -0.000000177588
122       0.000001093228
123      -0.000002841737
124       0.000013580399
125       0.000002289485
126      -0.000078569835
127       0.000003191740
128       0.000003500116
129       0.000004813607
130      -0.000016163613
131      -0.000021052309
132      -0.000025765425
133      -0.000026647534
134      -0.000053223830
135      -0.000049336420
136       0.000000952986
137       0.000002338522
138       0.000002606729
139      -0.000000219771
140       0.000001658077
141      -0.000005454071
142      -0.000013639905
143      -0.000018701290
144       0.000003860344
145      -0.000011321639
146      -0.000000674587
147       0.000000336687
148       0.000001167325
149      -0.000001477337
150       0.000001537244
151       0.000001194682
152       0.000000241004
153       0.000000107292
154      -0.000000706173
155       0.000002000148
156      -0.000010914055
157      -0.000002751100
158       0.000064544563
159      -0.000003202442
160       0.000004380981
161       0.000000210215
162       0.000015557940
163      -0.000026493778
164      -0.000003794085
165       0.000017314181
166      -0.000059151045
167      -0.000020326690
168       0.000001471831
169       0.000000179842
170      -0.000000178036
171       0.000000875245
172       0.000002643706
173      -0.000009852195
174      -0.000002513418
175       0.000004804872
176      -0.000009716840
177      -0.000015591966
178      -0.000001204631
179      -0.000000012602
180      -0.000000725637
181      -0.000001195274
182      -0.000001065096
183      -0.000001196813
184       0.000001648482
185       0.000000001155
186      -0.000000048552
187       0.000000275038
188      -0.000002418532
189       0.000000261259
190       0.000019823325
191       0.000001329498
192      -0.000001413558
193      -0.000000515506
194      -0.000008273544
195       0.000005269558
196       0.000001156872
197      -0.000017772111
198      -0.000006278314
199      -0.000008187999
200       0.000000461045
201       0.000000500150
202       0.000000117047
203      -0.000000472779
204       0.000001379424
205      -0.000003203752
206      -0.000000911354
207      -0.000000614348
208       0.000004336339
209      -0.000005597506
210      -0.000000657481
211      -0.000000146862
212      -0.000000274053
213       0.000000763789
214       0.000000090578
215      -0.000000734610
216      -0.000001020834
 Sym=     1a
 Ene= -2.17802311419330E+02
 Spin= Alpha
 Occup= 1.000000
  1      -0.000000092513
  2      -0.000000126367
  3      -0.000000207005
  4      -0.000000548334
  5      -0.000000529879
  6      -0.000000762856
  7       0.000002780604
  8       0.000001722286
  9      -0.000000063929
 10      -0.000004450030
 11       0.000008211151
 12      -0.000012734399
 13       0.000020913360
 14      -0.000030296922
 15       0.000019608705
 16       0.000015247291
 17      -0.000011409382
 18       0.000002731770
 19       0.340059233614
 20      -0.067512459900
 21      -0.021487947883
 22       0.469121146034
 23      -0.093134995368
 24      -0.029643608974
 25       0.303550804625
 26      -0.060264353248
 27      -0.019180993551
 28       0.018171402437
 29      -0.003605881948
 30      -0.001150519939
 31       0.005281190421
 32      -0.001051206498
 33      -0.000330037929
 34      -0.003664350646
 35       0.000732369558
 36       0.000224978113
 37       0.002210729978
 38      -0.000448094963
 39      -0.000127321601
 40      -0.001401461510
 41       0.000295699914
 42       0.000064999992
 43       0.000895308837
 44      -0.000200427740
 45      -0.000026234233
 46      -0.000367350111
 47       0.000065502262
 48       0.000035661987
 49       0.000156625369
 50      -0.000024626708
 51      -0.000019114560
 52      -0.000051035102
 53       0.000008277242
 54       0.000005841710
 55       0.000000044461
 56      -0.000000551863
 57      -0.000000293777
 58       0.000001267663
 59       0.000001248556
 60      -0.000000072317
 61       0.000000835271
 62      -0.000001128029
 63       0.000001874572
 64       0.000000211121
 65       0.000001836802
 66      -0.000001774193
 67       0.000002336450
 68      -0.000008022296
 69      -0.000000654368
 70      -0.000004305591
 71       0.000005099798
 72      -0.000007022264
 73       0.000021309552
 74       0.000001872047
 75       0.000010160594
 76      -0.000011868870
 77       0.000016084020
 78      -0.000049530518
 79      -0.000004242019
 80      -0.000019499303
 81       0.000023107184
 82      -0.000030866418
 83       0.000095025826
 84       0.000008005998
 85      -0.000005356529
 86       0.000007258102
 87      -0.000011354696
 88       0.000029096304
 89       0.000001979859
 90       0.000005108896
 91      -0.000006191612
 92       0.000008537501
 93      -0.000025366622
 94      -0.000002032451
 95      -0.000001593966
 96       0.000001918275
 97      -0.000002628332
 98       0.000007872906
 99       0.000000635051
100       0.000000937689
101       0.000004044873
102      -0.000002616684
103      -0.000002884982
104      -0.000001555878
105       0.000002420540
106      -0.000000533655
107      -0.000006927234
108      -0.000027276549
109       0.000018454589
110       0.000022716017
111       0.000014056052
112      -0.000013408859
113       0.000001471660
114       0.000001772496
115       0.000005191245
116      -0.000001507540
117      -0.000006444517
118      -0.000004182372
119       0.000001871680
120      -0.000001249394
121       0.000000003466
122      -0.000000050814
123       0.000000239319
124      -0.000001691380
125       0.000003694023
126       0.000026144396
127       0.000001344810
128      -0.000001713544
129      -0.000001545468
130      -0.000003314657
131       0.000007629399
132       0.000006931647
133       0.000017664985
134       0.000008333924
135       0.000011196833
136      -0.000000836696
137       0.000000775236
138      -0.000001586749
139       0.000001304206
140       0.000000518920
141       0.000003187236
142      -0.000001306828
143       0.000007474350
144      -0.000005216793
145      -0.000000585165
146       0.000000420358
147      -0.000000493839
148       0.000000474789
149      -0.000001062990
150      -0.000001128299
151      -0.000000364657
152       0.000000820121
153       0.000000062639
154      -0.000000420981
155       0.000001227109
156      -0.000006638610
157       0.000003097485
158       0.000058328853
159      -0.000000147176
160       0.000004271033
161       0.000000840575
162       0.000003688238
163      -0.000021976282
164      -0.000004982963
165       0.000025453122
166      -0.000041485954
167      -0.000011381832
168       0.000001101100
169       0.000000053438
170      -0.000000873032
171       0.000002528989
172       0.000000263279
173      -0.000006955806
174      -0.000001324252
175       0.000006075132
176      -0.000013280114
177      -0.000005347423
178      -0.000000425364
179       0.000000481258
180      -0.000000437178
181      -0.000000147118
182      -0.000000901074
183      -0.000001642377
184      -0.000000689588
185      -0.000000103939
186       0.000000715418
187      -0.000002145397
188       0.000012307686
189      -0.000001721331
190      -0.000096809825
191      -0.000006620863
192       0.000000554721
193      -0.000001717455
194       0.000038235365
195      -0.000003039676
196       0.000008578242
197       0.000083596119
198      -0.000008188331
199       0.000015298503
200      -0.000001418824
201       0.000001830458
202      -0.000000216325
203       0.000002926148
204      -0.000000567569
205       0.000011333692
206      -0.000010681009
207       0.000001021719
208      -0.000021866821
209       0.000003744275
210       0.000000533475
211       0.000001783131
212      -0.000000149789
213      -0.000000719557
214       0.000000258348
215       0.000002479809
216      -0.000000609385
 Sym=     1a
 Ene= -2.17801740595050E+02
 Spin= Alpha
 Occup= 1.000000
  1       0.000000354304
  2       0.000000445202
  3       0.000000897111
  4       0.000001662430
  5       0.000002919433
  6       0.000000502150
  7      -0.000003960532
  8      -0.000009407994
  9       0.000001278613
 10      -0.000008466125
 11       0.000015496220
 12      -0.000024703477
 13       0.000040746009
 14      -0.000058254742
 15       0.000035344640
 16       0.000030491013
 17      -0.000020271972
 18       0.000004672433
 19       0.017466616185
 20       0.181989409244
 21      -0.295354430027
 22       0.024096272491
 23       0.251060365865
 24      -0.407451208577
 25       0.015591292323
 26       0.162449983127
 27      -0.263643502479
 28       0.000936583323
 29       0.009728572974
 30      -0.015789221708
 31       0.000265978407
 32       0.002819176640
 33      -0.004574449559
 34      -0.000178709741
 35      -0.001947659161
 36       0.003159417772
 37       0.000095663974
 38       0.001157944426
 39      -0.001876429145
 40      -0.000037974763
 41      -0.000702040089
 42       0.001133823342
 43       0.000002057924
 44       0.000416907975
 45      -0.000669056550
 46      -0.000035553619
 47      -0.000219605631
 48       0.000359011685
 49       0.000021136413
 50       0.000102259349
 51      -0.000168094307
 52      -0.000006351583
 53      -0.000032574993
 54       0.000053482491
 55       0.000000514390
 56       0.000000169537
 57      -0.000001210335
 58      -0.000000963815
 59      -0.000000090488
 60      -0.000000304448
 61       0.000000638952
 62       0.000000693962
 63      -0.000000668630
 64      -0.000000469172
 65       0.000000020786
 66       0.000000235634
 67      -0.000001770222
 68       0.000002227351
 69      -0.000000011871
 70      -0.000000244133
 71       0.000000285613