[Molden Format]
[Title]
 Molden file created by orca_2mkl for BaseName=/home/smirnovaanastasia2304_2125/_scratch/O2_cc/Lu_O2_cc

[Atoms] AU
Lu   1  71         -0.0384861624        -0.0321442415        -1.3464279807 
O    2   8         -1.9494887229         2.6879596810        -0.7117313333 
O    3   8          3.1629121091        -0.9942057060        -0.8198274476 
[GTO]
  1 0
s   6 1.0 
  1397555.9200170001      2804.5119890306
   621135.9644520000      -768.2142817432
   276060.4286450000      1614.2664970544
   122693.5238420000       325.7081593792
    54530.4550410000       933.9810932816
    24235.7577960000       660.3076369236
s   1 1.0 
    10771.4479090000       753.5562155476
s   1 1.0 
     4787.3101820000       410.1840490352
s   1 1.0 
     2127.6934140000       223.2759157081
s   1 1.0 
      945.6415170000       121.5360144873
s   1 1.0 
      420.2851190000        66.1558268983
s   1 1.0 
      186.7933860000        36.0106709485
s   1 1.0 
       83.0192830000        19.6017265299
s   1 1.0 
       36.8974590000        10.6698284372
s   1 1.0 
       16.3988710000         5.8079190473
s   1 1.0 
        7.2883870000         3.1614306601
s   1 1.0 
        3.2392830000         1.7208648389
s   1 1.0 
        1.4396810000         0.9367200088
s   1 1.0 
        0.6398580000         0.5098856569
s   1 1.0 
        0.2843820000         0.2775470850
s   1 1.0 
        0.1263920000         0.1510774973
s   1 1.0 
        0.0561740000         0.0822359293
s   1 1.0 
        0.0249660000         0.0447632713
p   5 1.0 
    19323.3677850000      4822.9024605813
     7729.3471140000      1785.4667582687
     3091.7388460000      2818.2407679143
     1236.6955380000      2630.9996712709
      494.6782150000      2452.2890501058
p   1 1.0 
      197.8712860000      1057.8365251009
p   1 1.0 
       79.1485140000       336.5065675676
p   1 1.0 
       31.6594060000       107.0455309803
p   1 1.0 
       12.6637620000        34.0520696291
p   1 1.0 
        5.0655050000        10.8322462266
p   1 1.0 
        2.0262020000         3.4458273403
p   1 1.0 
        0.8104810000         1.0961465862
p   1 1.0 
        0.3241920000         0.3486927800
p   1 1.0 
        0.1296770000         0.1109222783
p   1 1.0 
        0.0518710000         0.0352854665
p   1 1.0 
        0.0207480000         0.0112243290
d   4 1.0 
     1430.5278870000      7824.3378881590
      520.1919590000      7307.3728048244
      189.1607120000      6842.4164092826
       68.7857140000      3759.1188941727
d   1 1.0 
       25.0129870000       797.5534701543
d   1 1.0 
        9.0956320000       135.8087103594
d   1 1.0 
        3.3075020000        23.1257212041
d   1 1.0 
        1.2027280000         3.9378853841
d   1 1.0 
        0.4373560000         0.6705504976
d   1 1.0 
        0.1590380000         0.1141817430
d   1 1.0 
        0.0578320000         0.0194430527
d   1 1.0 
        0.0210300000         0.0033108447
f   4 1.0 
       46.7781990000      3161.2713943715
       15.5927330000       939.9878603884
        5.1975780000       122.7894475198
        1.7325260000         7.1830685073
f   1 1.0 
        0.5775090000         1.6577051316
f   1 1.0 
        0.1925030000         0.1399537239

  2 0
s   6 1.0 
    27032.3826310000         1.4645050749
     4052.3871392000         1.8244031008
      922.3272271000         2.8547160967
      261.2407098900         4.3654874290
       85.3546413500         5.8940772662
       31.0350352400         6.2963020147
s   1 1.0 
       12.2608607300         4.6698272139
s   1 1.0 
        4.9987076000         2.3826123703
s   1 1.0 
        1.1703108200         0.8019291632
s   1 1.0 
        0.4647474100        -0.4011648063
s   1 1.0 
        0.1850453600         0.2010799377
p   4 1.0 
       63.2749548000         3.0898340730
       14.6270493800         3.3923831935
        4.4501223500         2.9482801524
        1.5275799600         1.7113350234
p   1 1.0 
        0.5293511800         0.6436057935
p   1 1.0 
        0.1747842100         0.1610897223
d   1 1.0 
        2.3140000000        12.3767310624
d   1 1.0 
        0.6450000000         1.3234257612
f   1 1.0 
        1.4280000000        12.7097950062

  3 0
s   6 1.0 
    27032.3826310000         1.4645050749
     4052.3871392000         1.8244031008
      922.3272271000         2.8547160967
      261.2407098900         4.3654874290
       85.3546413500         5.8940772662
       31.0350352400         6.2963020147
s   1 1.0 
       12.2608607300         4.6698272139
s   1 1.0 
        4.9987076000         2.3826123703
s   1 1.0 
        1.1703108200         0.8019291632
s   1 1.0 
        0.4647474100        -0.4011648063
s   1 1.0 
        0.1850453600         0.2010799377
p   4 1.0 
       63.2749548000         3.0898340730
       14.6270493800         3.3923831935
        4.4501223500         2.9482801524
        1.5275799600         1.7113350234
p   1 1.0 
        0.5293511800         0.6436057935
p   1 1.0 
        0.1747842100         0.1610897223
d   1 1.0 
        2.3140000000        12.3767310624
d   1 1.0 
        0.6450000000         1.3234257612
f   1 1.0 
        1.4280000000        12.7097950062

[5D]
[7F]
[9G]
[MO]
 Sym=     1a
 Ene= -2.33429518148131E+03
 Spin= Alpha
 Occup= 1.000000
  1       0.099534866086
  2       0.106648258551
  3       0.179819766688
  4       0.301237585714
  5       0.330325728354
  6       0.163843423382
  7       0.008517125650
  8       0.003468458476
  9      -0.002522328903
 10       0.001673889373
 11      -0.001124298682
 12       0.000754557078
 13      -0.000504007560
 14       0.000343605094
 15      -0.000247499755
 16       0.000183422184
 17      -0.000048621957
 18       0.000011434726
 19      -0.000000313849
 20      -0.000000427958
 21      -0.000000282612
 22       0.000000286366
 23       0.000000390179
 24       0.000000257731
 25      -0.000000238196
 26      -0.000000324578
 27      -0.000000214391
 28       0.000000270056
 29       0.000000367966
 30       0.000000243056
 31      -0.000000377100
 32      -0.000000513799
 33      -0.000000339389
 34       0.000000597292
 35       0.000000813812
 36       0.000000537561
 37      -0.000001070477
 38      -0.000001458577
 39      -0.000000963448
 40       0.000002110152
 41       0.000002875116
 42       0.000001899143
 43      -0.000004153409
 44      -0.000005657772
 45      -0.000003737500
 46       0.000011996632
 47       0.000016318904
 48       0.000010785197
 49      -0.000001334593
 50      -0.000001814852
 51      -0.000001199567
 52       0.000000129649
 53       0.000000175990
 54       0.000000116393
 55      -0.000000027957
 56       0.000000001089
 57       0.000000004197
 58       0.000000013697
 59      -0.000000040774
 60       0.000000217515
 61      -0.000000014090
 62      -0.000000040076
 63      -0.000000102749
 64       0.000000305308
 65      -0.000000519294
 66       0.000000038901
 67       0.000000102651
 68       0.000000241708
 69      -0.000000717699
 70       0.000001100652
 71      -0.000000084138
 72      -0.000000219809
 73      -0.000000511146
 74       0.000001517587
 75      -0.000002334609
 76       0.000000180275
 77       0.000000468639
 78       0.000001082961
 79      -0.000003215132
 80       0.000004884274
 81      -0.000000379210
 82      -0.000000983020
 83      -0.000002264484
 84       0.000006722159
 85      -0.000014460331
 86       0.000001156258
 87       0.000002951982
 88       0.000006685205
 89      -0.000019831969
 90       0.000000640619
 91      -0.000000033923
 92      -0.000000107841
 93      -0.000000307997
 94       0.000000915386
 95       0.000000208367
 96      -0.000000019859
 97      -0.000000046828
 98      -0.000000094072
 99       0.000000278936
100      -0.000000142160
101      -0.000000065376
102      -0.000000073681
103       0.000000037043
104      -0.000000143861
105      -0.000000353353
106       0.000000113219
107       0.000000994181
108       0.000000458653
109       0.000000516842
110      -0.000000260989
111       0.000001012609
112       0.000002480540
113      -0.000000794935
114      -0.000002808290
115      -0.000001300468
116      -0.000001464542
117       0.000000743429
118      -0.000002880624
119      -0.000007036055
120       0.000002255657
121       0.000000055849
122      -0.000000270532
123       0.000000575954
124      -0.000003268133
125      -0.000007802888
126      -0.000035415898
127      -0.000000099579
128       0.000000178285
129       0.000000049236
130       0.000001565615
131      -0.000002476844
132      -0.000000629828
133      -0.000009118040
134       0.000012719819
135       0.000002913929
136      -0.000000070365
137      -0.000000112768
138       0.000000005487
139      -0.000000092370
140      -0.000000253895
141      -0.000000933844
142      -0.000000135784
143       0.000000675391
144      -0.000000486116
145      -0.000001241480
146       0.000000042345
147      -0.000000033752
148       0.000000032262
149       0.000000043711
150      -0.000000008420
151       0.000000014526
152       0.000000015856
153       0.000000055830
154      -0.000000270422
155       0.000000575680
156      -0.000003267884
157      -0.000007805888
158      -0.000035436120
159       0.000000201321
160      -0.000000038686
161       0.000000042763
162      -0.000002861902
163       0.000000711775
164      -0.000000536330
165       0.000015034395
166      -0.000004672487
167       0.000002404707
168      -0.000000075863
169       0.000000028267
170      -0.000000103088
171       0.000000225646
172      -0.000000151172
173      -0.000000960605
174       0.000000591623
175       0.000000114914
176       0.000001153727
177      -0.000000709414
178       0.000000038086
179       0.000000043604
180      -0.000000021148
181      -0.000000027702
182      -0.000000036116
183       0.000000004198
184      -0.000000020143
 Sym=     1a
 Ene= -4.02675770439905E+02
 Spin= Alpha
 Occup= 1.000000
  1      -0.038358929261
  2      -0.045559394490
  3      -0.077514682352
  4      -0.153223100487
  5      -0.200794992536
  6      -0.059021665154
  7       0.497414496246
  8       0.578452932232
  9       0.079145623945
 10       0.005092670305
 11      -0.004448459308
 12       0.003129826585
 13      -0.002217380222
 14       0.001556016835
 15      -0.001130867793
 16       0.000842433214
 17      -0.000223023478
 18       0.000052480844
 19      -0.000000383166
 20      -0.000000532509
 21      -0.000000349467
 22      -0.000000670237
 23      -0.000000927359
 24      -0.000000609474
 25      -0.000001398859
 26      -0.000001913875
 27      -0.000001262475
 28      -0.000000838737
 29      -0.000001145611
 30      -0.000000756112
 31      -0.000000748797
 32      -0.000001019777
 33      -0.000000673712
 34       0.000002332976
 35       0.000003178400
 36       0.000002099546
 37      -0.000004625742
 38      -0.000006302669
 39      -0.000004163191
 40       0.000009590352
 41       0.000013066577
 42       0.000008631156
 43      -0.000019349886
 44      -0.000026357261
 45      -0.000017411742
 46       0.000055391025
 47       0.000075347102
 48       0.000049797227
 49      -0.000006155832
 50      -0.000008370826
 51      -0.000005532928
 52       0.000000599658
 53       0.000000813955
 54       0.000000538328
 55      -0.000000563418
 56       0.000000069024
 57       0.000000146747
 58       0.000000244192
 59      -0.000000721753
 60       0.000000391478
 61      -0.000000084051
 62      -0.000000149888
 63      -0.000000144859
 64       0.000000424702
 65      -0.000002038669
 66       0.000000181147
 67       0.000000440656
 68       0.000000929502
 69      -0.000002757141
 70       0.000004760661
 71      -0.000000393339
 72      -0.000000989704
 73      -0.000002190799
 74       0.000006501505
 75      -0.000010817439
 76       0.000000843116
 77       0.000002181716
 78       0.000005012683
 79      -0.000014880795
 80       0.000022857447
 81      -0.000001782163
 82      -0.000004610120
 83      -0.000010592479
 84       0.000031442496
 85      -0.000066822387
 86       0.000005348126
 87       0.000013647819
 88       0.000030889646
 89      -0.000091634693
 90       0.000002964528
 91      -0.000000156203
 92      -0.000000498003
 93      -0.000001425836
 94       0.000004237700
 95       0.000000954626
 96      -0.000000091258
 97      -0.000000214907
 98      -0.000000430797
 99       0.000001277351
100      -0.000000702439
101      -0.000000320011
102      -0.000000360610
103       0.000000178902
104      -0.000000696650
105      -0.000001725578
106       0.000000552720
107       0.000004742235
108       0.000002186402
109       0.000002463600
110      -0.000001242960
111       0.000004823267
112       0.000011822283
113      -0.000003788684
114      -0.000013012951
115      -0.000006025255
116      -0.000006785358
117       0.000003443740
118      -0.000013344183
119      -0.000032597739
120       0.000010450351
121       0.000000246373
122      -0.000001236346
123       0.000002740143
124      -0.000015421430
125      -0.000036208510
126      -0.000163356586
127      -0.000000555271
128       0.000000966026
129       0.000000262110
130       0.000007361923
131      -0.000011602607
132      -0.000002942085
133      -0.000042021432
134       0.000058598259
135       0.000013419261
136      -0.000000275937
137      -0.000000497761
138      -0.000000000180
139      -0.000000396444
140      -0.000001080663
141      -0.000004468867
142      -0.000000690881
143       0.000003199184
144      -0.000002328224
145      -0.000006014658
146       0.000000248147
147      -0.000000218959
148       0.000000236418
149       0.000000219503
150       0.000000031388
151       0.000000223400
152       0.000000126062
153       0.000000246290
154      -0.000001235830
155       0.000002738891
156      -0.000015420541
157      -0.000036222733
158      -0.000163450170
159       0.000001096271
160      -0.000000224595
161       0.000000226698
162      -0.000013415353
163       0.000003360674
164      -0.000002503384
165       0.000069266263
166      -0.000021540578
167       0.000011072938
168      -0.000000299509
169       0.000000104783
170      -0.000000464023
171       0.000000962238
172      -0.000000641912
173      -0.000004597908
174       0.000002810710
175       0.000000501216
176       0.000005565715
177      -0.000003453720
178       0.000000219604
179       0.000000311224
180      -0.000000132410
181      -0.000000174023
182      -0.000000128178
183       0.000000118890
184      -0.000000227999
 Sym=     1a
 Ene= -3.55402184393956E+02
 Spin= Alpha
 Occup= 1.000000
  1       0.000000000621
  2       0.000000000739
  3       0.000000001255
  4       0.000000002486
  5       0.000000003166
  6       0.000000001222
  7      -0.000000006804
  8      -0.000000013006
  9       0.000000000484
 10      -0.000000001611
 11       0.000000002868
 12      -0.000000002043
 13      -0.000000002202
 14       0.000000008994
 15      -0.000000020339
 16      -0.000000034652
 17       0.000000010827
 18      -0.000000002490
 19       0.295920930705
 20      -0.213049166576
 21      -0.006222224443
 22       0.389045072397
 23      -0.280094172548
 24      -0.008180312455
 25       0.241474424207
 26      -0.173850240789
 27      -0.005077397408
 28       0.010539491896
 29      -0.007587935901
 30      -0.000221608919
 31       0.004719182298
 32      -0.003397595765
 33      -0.000099231089
 34      -0.003232639377
 35       0.002327360185
 36       0.000067976300
 37       0.001989768595
 38      -0.001432562726
 39      -0.000041847416
 40      -0.001300433085
 41       0.000936296930
 42       0.000027362521
 43       0.000924485185
 44      -0.000665663828
 45      -0.000019470581
 46      -0.000833223990
 47       0.000600005284
 48       0.000017569445
 49       0.000207855848
 50      -0.000149654329
 51      -0.000004373603
 52      -0.000054216464
 53       0.000039032577
 54       0.000001139669
 55       0.000000010983
 56      -0.000000316865
 57       0.000000243952
 58      -0.000000713606
 59      -0.000000233005
 60      -0.000000028694
 61       0.000000771642
 62      -0.000000594693
 63       0.000001739953
 64       0.000000563833
 65       0.000000143924
 66      -0.000003852355
 67       0.000002967525
 68      -0.000008684985
 69      -0.000002814803
 70      -0.000000343108
 71       0.000009174127
 72      -0.000007066981
 73       0.000020682984
 74       0.000006702658
 75       0.000000769110
 76      -0.000020558740
 77       0.000015836727
 78      -0.000046349623
 79      -0.000015019946
 80      -0.000001501593
 81       0.000040103906
 82      -0.000030892653
 83       0.000090414960
 84       0.000029297307
 85       0.000002483873
 86      -0.000066407688
 87       0.000051155663
 88      -0.000149716766
 89      -0.000048516672
 90       0.000000126591
 91      -0.000003364583
 92       0.000002591301
 93      -0.000007585215
 94      -0.000002457324
 95      -0.000000112145
 96       0.000002992909
 97      -0.000002305349
 98       0.000006747429
 99       0.000002186389
100      -0.000000255857
101       0.000004971892
102      -0.000003504525
103      -0.000002080611
104      -0.000000987858
105      -0.000001543930
106      -0.000005121736
107       0.000001687416
108      -0.000032806609
109       0.000023115772
110       0.000013957821
111       0.000006588017
112       0.000010100993
113       0.000033539910
114      -0.000001846099
115       0.000035905211
116      -0.000025131520
117      -0.000020154358
118      -0.000008714272
119      -0.000009257569
120      -0.000031261506
121       0.000000957514
122      -0.000005107959
123       0.000011774935
124      -0.000069047967
125      -0.000164836055
126      -0.000385122385
127      -0.000005122133
128       0.000008384828
129       0.000002185044
130       0.000051950591
131      -0.000076011105
132      -0.000018167507
133      -0.000098409077
134       0.000131548774
135       0.000028913567
136      -0.000002470927
137      -0.000000508225
138       0.000000600269
139       0.000000190988
140      -0.000004232277
141      -0.000015647409
142      -0.000008555012
143       0.000012758623
144      -0.000017429404
145      -0.000027931251
146      -0.000000106566
147       0.000001566242
148      -0.000001251868
149       0.000000833063
150      -0.000000098989
151      -0.000001380521
152      -0.000003170321
153      -0.000000956019
154       0.000005100358
155      -0.000011759952
156       0.000069025701
157       0.000164864188
158       0.000385182480
159      -0.000009619539
160       0.000002238456
161      -0.000001870855
162       0.000089038281
163      -0.000025525422
164       0.000015190791
165      -0.000156696745
166       0.000052179290
167      -0.000023524111
168       0.000002514237
169      -0.000000477517
170       0.000000156383
171      -0.000002413804
172       0.000003520684
173       0.000016440176
174      -0.000012928577
175       0.000003796549
176      -0.000031006596
177       0.000012222146
178      -0.000000055476
179       0.000001684886
180      -0.000001134577
181       0.000000697174
182       0.000000349809
183      -0.000000680576
184      -0.000003408061
 Sym=     1a
 Ene= -3.55401741656151E+02
 Spin= Alpha
 Occup= 1.000000
  1      -0.000000278745
  2      -0.000000368939
  3      -0.000000460317
  4      -0.000001519431
  5      -0.000000578029
  6      -0.000002638226
  7       0.000010077712
  8      -0.000001478886
  9       0.000006032375
 10      -0.000024436429
 11       0.000045225197
 12      -0.000073916331
 13       0.000125353181
 14      -0.000202324657
 15       0.000230621797
 16      -0.000172650683
 17      -0.000006772794
 18       0.000007518770
 19       0.190440862280
 20       0.259512267630
 21       0.171412179521
 22       0.250373200504
 23       0.341181593245
 24       0.225356130967
 25       0.155401045012
 26       0.211763784993
 27       0.139873510383
 28       0.006788569131
 29       0.009250725171
 30       0.006110259230
 31       0.003024736546
 32       0.004121794212
 33       0.002722511731
 34      -0.002057507135
 35      -0.002803766510
 36      -0.001851930665
 37       0.001237273762
 38       0.001686057131
 39       0.001113661450
 40      -0.000751463748
 41      -0.001024079251
 42      -0.000676407126
 43       0.000454256466
 44       0.000619115288
 45       0.000408913370
 46      -0.000261862713
 47      -0.000357037304
 48      -0.000235785656
 49       0.000112651301
 50       0.000153525042
 51       0.000101402359
 52      -0.000035117002
 53      -0.000047853355
 54      -0.000031608006
 55       0.000000333359
 56      -0.000000340778
 57      -0.000000485617
 58       0.000000062235
 59      -0.000000211541
 60      -0.000000552363
 61      -0.000000288660
 62      -0.000000327305
 63       0.000000481320
 64      -0.000001464597
 65       0.000003207037
 66      -0.000000756611
 67      -0.000001318785
 68      -0.000001139256
 69       0.000003334060
 70      -0.000007488678
 71       0.000001334190
 72       0.000002507087
 73       0.000002954537
 74      -0.000008704478
 75       0.000017139327
 76      -0.000002828756
 77      -0.000005440140
 78      -0.000006915486
 79       0.000020399867
 80      -0.000033106139
 81       0.000004715382
 82       0.000009516344
 83       0.000013868826
 84      -0.000040995731
 85       0.000027510453
 86      -0.000002217119
 87      -0.000005675978
 88      -0.000012655309
 89       0.000037669439
 90      -0.000000078832
 91      -0.000001654875
 92      -0.000002181815
 93       0.000001166293
 94      -0.000003638007
 95      -0.000001283100
 96       0.000000565075
 97       0.000000875130
 98       0.000000276850
 99      -0.000000776183
100       0.000001628732
101       0.000000703346
102       0.000000793318
103      -0.000000362743
104       0.000001437787
105       0.000003745793
106      -0.000001196667
107      -0.000010367863
108      -0.000004493540
109      -0.000005067994
110       0.000002331190
111      -0.000009227185
112      -0.000023951917
113       0.000007653145
114       0.000004064550
115       0.000001779315
116       0.000002019212
117      -0.000000943196
118       0.000003733333
119       0.000009555498
120      -0.000003048892
121      -0.000000280746
122       0.000001557604
123      -0.000003847207
124       0.000025216591
125       0.000052503202
126       0.000076047607
127       0.000004801037
128      -0.000003766055
129      -0.000000237798
130      -0.000029788220
131       0.000032574424
132       0.000005547780
133       0.000027926205
134      -0.000027299962
135      -0.000003768791
136       0.000000159886
137       0.000000245253
138      -0.000001272571
139       0.000001948908
140      -0.000000240350
141       0.000010455771
142       0.000002666173
143       0.000000537616
144      -0.000004488777
145       0.000020531421
146       0.000001536479
147       0.000001772863
148      -0.000000412619
149       0.000002529950
150       0.000001327743
151       0.000000951373
152      -0.000005627641
153      -0.000000279721
154       0.000001552301
155      -0.000003836063
156       0.000025177910
157       0.000052441723
158       0.000075892233
159      -0.000005087893
160       0.000003360608
161      -0.000000026832
162       0.000040436776
163      -0.000018021995
164       0.000004055238
165      -0.000034761627
166       0.000017878955
167      -0.000002430715
168       0.000000217835
169      -0.000001263675
170      -0.000000110436
171      -0.000001453646
172      -0.000001340483
173       0.000010514809
174       0.000000807102
175       0.000001974532
176      -0.000008679912
177       0.000019159443
178       0.000001672697
179      -0.000000725338
180       0.000001571982
181      -0.000002772232
182      -0.000000125319
183       0.000004083655
184       0.000004029917
 Sym=     1a
 Ene= -3.55401717570417E+02
 Spin= Alpha
 Occup= 1.000000
  1      -0.000000000000
  2      -0.000000000000
  3      -0.000000000000
  4       0.000000000000
  5      -0.000000000000
  6       0.000000000000
  7      -0.000000000000
  8      -0.000000000000
  9       0.000000000000
 10       0.000000000001
 11      -0.000000000002
 12       0.000000000003
 13      -0.000000000006
 14       0.000000000010
 15      -0.000000000011
 16       0.000000000008
 17       0.000000000001
 18      -0.000000000000
 19       0.095710292055
 20       0.142338912831
 21      -0.321831533459
 22       0.125830692506
 23       0.187133521203
 24      -0.423113166297
 25       0.078100128840
 26       0.116149341860
 27      -0.262616315223
 28       0.003412361048
 29       0.005074812050
 30      -0.011474266116
 31       0.001518960399
 32       0.002258975536
 33      -0.005107595007
 34      -0.001031945589
 35      -0.001534694723
 36       0.003469979305
 37       0.000617826243
 38       0.000918823257
 39      -0.002077479386
 40      -0.000369523140
 41      -0.000549551904
 42       0.001242547451
 43       0.000215725113
 44       0.000320827435
 45      -0.000725394968
 46      -0.000117842230
 47      -0.000175260986
 48       0.000396263279
 49       0.000055057589
 50       0.000081881447
 51      -0.000185135356
 52      -0.000017578125
 53      -0.000026141921
 54       0.000059107483
 55       0.000000548424
 56       0.000000256073
 57       0.000000340371
 58       0.000000108313
 59      -0.000000297774
 60       0.000000556387
 61       0.000000261046
 62       0.000000344470
 63       0.000000109119
 64      -0.000000302408
 65       0.000000778410
 66       0.000000366151
 67       0.000000481297
 68       0.000000152214
 69      -0.000000423274
 70      -0.000001125555
 71      -0.000000529732
 72      -0.000000695742
 73      -0.000000220002
 74       0.000000612084
 75       0.000002264057
 76       0.000001065663
 77       0.000001399415
 78       0.000000442517
 79      -0.000001231219
 80      -0.000003208683
 81      -0.000001511187
 82      -0.000001982680
 83      -0.000000626849
 84       0.000001745057
 85      -0.000000135491
 86      -0.000000062093
 87      -0.000000084908
 88      -0.000000026022
 89       0.000000073758
 90       0.000002343920
 91       0.000001102275
 92       0.000001449444
 93       0.000000458321
 94      -0.000001274540
 95      -0.000000667529
 96      -0.000000313927
 97      -0.000000412783
 98      -0.000000130565
 99       0.000000362966
100      -0.000000803694
101       0.000000171418
102       0.000000342168
103       0.000000339616
104      -0.000000943221
105       0.000000588347
106      -0.000000160870
107       0.000004489496
108      -0.000000988839
109      -0.000001954075
110      -0.000001895371
111       0.000005259602
112      -0.000003269585
113       0.000000893328
114      -0.000000379013
115       0.000000121063
116       0.000000216833
117       0.000000157931
118      -0.000000432765
119       0.000000255539
120      -0.000000068909
121      -0.000000000007
122       0.000000000038
123      -0.000000000088
124       0.000000000518
125       0.000000001237
126       0.000000002893
127       0.000000528938
128       0.000000786482
129      -0.000001778432
130      -0.000001646333
131      -0.000002447167
132       0.000005534589
133       0.000001918810
134       0.000002851440
135      -0.000006449696
136       0.000000804575
137      -0.000001316543
138       0.000001637234
139       0.000001165421
140      -0.000000026805
141      -0.000004235853
142       0.000007571946
143      -0.000009050675
144      -0.000006516638
145      -0.000000013632
146      -0.000003291490
147      -0.000001344558
148       0.000003125313
149      -0.000000721623
150      -0.000004668763
151       0.000001895143
152      -0.000002656890
153       0.000000000007
154      -0.000000000038
155       0.000000000089
156      -0.000000000521
157      -0.000000001243
158      -0.000000002901
159       0.000000529066
160       0.000000786666
161      -0.000001778715
162      -0.000001648139
163      -0.000002449810
164       0.000005539460
165       0.000001920404
166       0.000002853748
167      -0.000006453175
168       0.000000683099
169       0.000002015066
170      -0.000000716549
171      -0.000000873907
172      -0.000000781884
173      -0.000003552977
174      -0.000011234651
175       0.000004234069
176       0.000004994259
177       0.000004249118
178      -0.000003514302
179       0.000002899512
180      -0.000000083079
181       0.000003589319
182      -0.000003288222
183       0.000003029478
184       0.000001310015
 Sym=     1a
 Ene= -9.34837180836107E+01
 Spin= Alpha
 Occup= 1.000000
  1       0.018195918977
  2       0.021937521326
  3       0.037593538490
  4       0.075818227638
  5       0.104342101025
  6       0.023995534238
  7      -0.396863143457
  8      -0.682363328286
  9       0.526001921102
 10       0.866834473940
 11       0.015448311062
 12       0.039828082334
 13      -0.027055858939
 14       0.018974721421
 15      -0.013977470327
 16       0.010450158317
 17      -0.002770810610
 18       0.000652984960
 19       0.000015783421
 20       0.000021579527
 21       0.000014238016
 22       0.000022304931
 23       0.000030498407
 24       0.000020122086
 25       0.000004319759
 26       0.000005894414
 27       0.000003891632
 28      -0.000050396401
 29      -0.000068938062
 30      -0.000045477283
 31      -0.000061049511
 32      -0.000083355722
 33      -0.000055022052
 34       0.000035128109
 35       0.000047881298
 36       0.000031623673
 37      -0.000060447738
 38      -0.000082375489
 39      -0.000054409556
 40       0.000122073888
 41       0.000166326932
 42       0.000109866572
 43      -0.000241112627
 44      -0.000328423486
 45      -0.000216959511
 46       0.000689962473
 47       0.000938530395
 48       0.000620280845
 49      -0.000077172644
 50      -0.000104940972
 51      -0.000069363632
 52       0.000007643290
 53       0.000010375354
 54       0.000006861847