[Molden Format]
[Title]
 Molden file created by orca_2mkl for BaseName=/home/smirnovaanastasia2304_1705/_scratch/HERDB_2/Nd_OH_cc

[Atoms] AU
Nd   1  60         -0.5155872092         0.2580496625         0.0170547784 
O    2   8         -1.9535232882         3.9779075270        -0.1291155381 
O    3   8         -2.0405432869        -2.5086492373        -2.4108710277 
O    4   8          3.1282224065        -0.3926586345         1.4873977708 
H    5   1          4.8066658203        -0.5480716014         2.1571771839 
H    6   1         -2.6791082038         5.6319167819        -0.2784454767 
H    7   1         -2.5061812550        -3.8432324146        -3.5466191109 
[GTO]
  1 0
s   6 1.0 
   994735.7959840000      1863.9135210443
   442104.7982150000      -485.8456998776
   196491.0214290000      1100.1532089676
    87329.3428570000       270.9095245490
    38813.0412700000       691.0933671839
    17250.2405640000       543.4710696949
s   1 1.0 
     7666.7735840000       583.9418085366
s   1 1.0 
     3407.4549260000       317.8576600717
s   1 1.0 
     1514.4244120000       173.0197951516
s   1 1.0 
      673.0775160000        94.1800474027
s   1 1.0 
      299.1455630000        51.2651245068
s   1 1.0 
      132.9535830000        27.9051991663
s   1 1.0 
       59.0904820000        15.1896666015
s   1 1.0 
       26.2624360000         8.2682071254
s   1 1.0 
       11.6721940000         4.5006419631
s   1 1.0 
        5.1876420000         2.4498392620
s   1 1.0 
        2.3056190000         1.3335237321
s   1 1.0 
        1.0247190000         0.7258780834
s   1 1.0 
        0.4554310000         0.3951181991
s   1 1.0 
        0.2024140000         0.2150752828
s   1 1.0 
        0.0899620000         0.1170723723
s   1 1.0 
        0.0399830000         0.0637259950
s   1 1.0 
        0.0177700000         0.0346877127
p   5 1.0 
    13410.3010510000      2401.5364004241
     5364.1204200000      1024.5588215214
     2145.6481680000      1626.1321344023
      858.2592670000      1638.1793695256
      343.3037070000      1573.4149290153
p   1 1.0 
      137.3214830000       670.0592301905
p   1 1.0 
       54.9285930000       213.1513959541
p   1 1.0 
       21.9714370000        67.8052256278
p   1 1.0 
        8.7885750000        21.5694050932
p   1 1.0 
        3.5154300000         6.8614066030
p   1 1.0 
        1.4061720000         2.1826703318
p   1 1.0 
        0.5624690000         0.6943258388
p   1 1.0 
        0.2249880000         0.2208712972
p   1 1.0 
        0.0899950000         0.0702607958
p   1 1.0 
        0.0359980000         0.0223505417
p   1 1.0 
        0.0143990000         0.0071097692
d   4 1.0 
      918.9318400000      3603.5190663488
      334.1570330000      3495.8915352391
      121.5116480000      3244.5867394900
       44.1860540000      1718.4301569526
d   1 1.0 
       16.0676560000       367.6097339451
d   1 1.0 
        5.8427840000        62.5971828323
d   1 1.0 
        2.1246490000        10.6591524025
d   1 1.0 
        0.7726000000         1.8150592864
d   1 1.0 
        0.2809450000         0.3090703695
d   1 1.0 
        0.1021620000         0.0526291686
d   1 1.0 
        0.0371500000         0.0089618571
d   1 1.0 
        0.0135090000         0.0015260216
f   4 1.0 
       23.0540210000       712.1519496894
        7.6846740000       187.9678783496
        2.5615580000        24.4339048979
        0.8538530000         1.5279715144
f   1 1.0 
        0.2846180000         0.3373575197
f   1 1.0 
        0.0948730000         0.0284820343

  2 0
s   6 1.0 
    27032.3826310000         1.4645050749
     4052.3871392000         1.8244031008
      922.3272271000         2.8547160967
      261.2407098900         4.3654874290
       85.3546413500         5.8940772662
       31.0350352400         6.2963020147
s   1 1.0 
       12.2608607300         4.6698272139
s   1 1.0 
        4.9987076000         2.3826123703
s   1 1.0 
        1.1703108200         0.8019291632
s   1 1.0 
        0.4647474100        -0.4011648063
s   1 1.0 
        0.1850453600         0.2010799377
p   4 1.0 
       63.2749548000         3.0898340730
       14.6270493800         3.3923831935
        4.4501223500         2.9482801524
        1.5275799600         1.7113350234
p   1 1.0 
        0.5293511800         0.6436057935
p   1 1.0 
        0.1747842100         0.1610897223
d   1 1.0 
        2.3140000000        12.3767310624
d   1 1.0 
        0.6450000000         1.3234257612
f   1 1.0 
        1.4280000000        12.7097950062

  3 0
s   6 1.0 
    27032.3826310000         1.4645050749
     4052.3871392000         1.8244031008
      922.3272271000         2.8547160967
      261.2407098900         4.3654874290
       85.3546413500         5.8940772662
       31.0350352400         6.2963020147
s   1 1.0 
       12.2608607300         4.6698272139
s   1 1.0 
        4.9987076000         2.3826123703
s   1 1.0 
        1.1703108200         0.8019291632
s   1 1.0 
        0.4647474100        -0.4011648063
s   1 1.0 
        0.1850453600         0.2010799377
p   4 1.0 
       63.2749548000         3.0898340730
       14.6270493800         3.3923831935
        4.4501223500         2.9482801524
        1.5275799600         1.7113350234
p   1 1.0 
        0.5293511800         0.6436057935
p   1 1.0 
        0.1747842100         0.1610897223
d   1 1.0 
        2.3140000000        12.3767310624
d   1 1.0 
        0.6450000000         1.3234257612
f   1 1.0 
        1.4280000000        12.7097950062

  4 0
s   6 1.0 
    27032.3826310000         1.4645050749
     4052.3871392000         1.8244031008
      922.3272271000         2.8547160967
      261.2407098900         4.3654874290
       85.3546413500         5.8940772662
       31.0350352400         6.2963020147
s   1 1.0 
       12.2608607300         4.6698272139
s   1 1.0 
        4.9987076000         2.3826123703
s   1 1.0 
        1.1703108200         0.8019291632
s   1 1.0 
        0.4647474100        -0.4011648063
s   1 1.0 
        0.1850453600         0.2010799377
p   4 1.0 
       63.2749548000         3.0898340730
       14.6270493800         3.3923831935
        4.4501223500         2.9482801524
        1.5275799600         1.7113350234
p   1 1.0 
        0.5293511800         0.6436057935
p   1 1.0 
        0.1747842100         0.1610897223
d   1 1.0 
        2.3140000000        12.3767310624
d   1 1.0 
        0.6450000000         1.3234257612
f   1 1.0 
        1.4280000000        12.7097950062

  5 0
s   3 1.0 
       34.0613410000         0.2556300129
        5.1235746000         0.4613599287
        1.1646626000         0.6811215012
s   1 1.0 
        0.3272304100         0.3083545312
s   1 1.0 
        0.1030724100         0.1296483265
p   1 1.0 
        0.8000000000         1.0784563492

  6 0
s   3 1.0 
       34.0613410000         0.2556300129
        5.1235746000         0.4613599287
        1.1646626000         0.6811215012
s   1 1.0 
        0.3272304100         0.3083545312
s   1 1.0 
        0.1030724100         0.1296483265
p   1 1.0 
        0.8000000000         1.0784563492

  7 0
s   3 1.0 
       34.0613410000         0.2556300129
        5.1235746000         0.4613599287
        1.1646626000         0.6811215012
s   1 1.0 
        0.3272304100         0.3083545312
s   1 1.0 
        0.1030724100         0.1296483265
p   1 1.0 
        0.8000000000         1.0784563492

[5D]
[7F]
[9G]
[MO]
 Sym=     1a
 Ene= -1.60728987729792E+03
 Spin= Alpha
 Occup= 1.000000
  1      -0.080655271676
  2      -0.093496079965
  3      -0.170836397753
  4      -0.298998652666
  5      -0.346279623059
  6      -0.176841024772
  7      -0.011065815625
  8      -0.003125183639
  9       0.002272817218
 10      -0.001496331312
 11       0.001012830069
 12      -0.000684653291
 13       0.000460742168
 14      -0.000315845379
 15       0.000208888530
 16      -0.000104421116
 17       0.000034507629
 18      -0.000009247512
 19       0.000000131856
 20       0.000000048718
 21      -0.000000201119
 22      -0.000000137005
 23      -0.000000056371
 24       0.000000211671
 25       0.000000116230
 26       0.000000050532
 27      -0.000000176587
 28      -0.000000145283
 29      -0.000000068095
 30       0.000000218988
 31       0.000000215406
 32       0.000000105194
 33      -0.000000322788
 34      -0.000000353322
 35      -0.000000175444
 36       0.000000528266
 37       0.000000631108
 38       0.000000313708
 39      -0.000000944805
 40      -0.000001163910
 41      -0.000000571932
 42       0.000001741630
 43       0.000001763458
 44       0.000000854995
 45      -0.000002634358
 46      -0.000000869612
 47      -0.000000440550
 48       0.000001643199
 49      -0.000000098013
 50      -0.000000080966
 51       0.000000102873
 52       0.000000055363
 53       0.000000036673
 54      -0.000000073965
 55       0.000000034881
 56      -0.000000047758
 57      -0.000000026686
 58       0.000000010924
 59       0.000000018143
 60      -0.000000186978
 61       0.000000255971
 62       0.000000144124
 63      -0.000000058619
 64      -0.000000098686
 65       0.000000465577
 66      -0.000000637769
 67      -0.000000359729
 68       0.000000146289
 69       0.000000245646
 70      -0.000000978415
 71       0.000001340591
 72       0.000000756165
 73      -0.000000307054
 74      -0.000000516245
 75       0.000002084934
 76      -0.000002856621
 77      -0.000001612162
 78       0.000000654030
 79       0.000001100283
 80      -0.000003987519
 81       0.000005460207
 82       0.000003084409
 83      -0.000001247319
 84      -0.000002113174
 85       0.000002861552
 86      -0.000003958343
 87      -0.000002481969
 88       0.000001100007
 89       0.000001562241
 90       0.000000397471
 91      -0.000000560472
 92      -0.000000246462
 93       0.000000073144
 94       0.000000170062
 95      -0.000000185401
 96       0.000000257785
 97       0.000000128275
 98      -0.000000046003
 99      -0.000000088301
100       0.000000010092
101       0.000000045048
102       0.000000259878
103      -0.000000294551
104       0.000000233435
105       0.000000479735
106      -0.000000194039
107      -0.000000084006
108      -0.000000370282
109      -0.000002151878
110       0.000002453410
111      -0.000001925880
112      -0.000003976214
113       0.000001595581
114       0.000000001836
115       0.000000134740
116       0.000002587994
117      -0.000003308005
118       0.000001992058
119       0.000004964811
120      -0.000001195813
121      -0.000000092831
122       0.000000434128
123      -0.000000830757
124       0.000002440005
125       0.000003596016
126       0.000011077746
127       0.000000242317
128      -0.000000702380
129       0.000000026191
130      -0.000002045481
131       0.000005380160
132      -0.000000274486
133      -0.000002767402
134       0.000005087724
135      -0.000000545762
136      -0.000000059473
137       0.000000034226
138       0.000000023849
139      -0.000000082152
140      -0.000000041971
141       0.000000404147
142      -0.000000058217
143      -0.000000118284
144       0.000000594012
145       0.000000324497
146       0.000000043990
147       0.000000065180
148      -0.000000149670
149       0.000000070111
150       0.000000017650
151      -0.000000237293
152       0.000000068907
153      -0.000000090182
154       0.000000422119
155      -0.000000809308
156       0.000002409892
157       0.000003660482
158       0.000011133628
159       0.000000291794
160       0.000000489521
161       0.000000456091
162      -0.000002044992
163      -0.000003983122
164      -0.000003564355
165      -0.000001145607
166      -0.000004469238
167      -0.000003311716
168      -0.000000021287
169       0.000000088341
170       0.000000049567
171       0.000000010980
172       0.000000044584
173       0.000000061635
174      -0.000000576894
175      -0.000000406634
176      -0.000000033724
177      -0.000000499756
178       0.000000066850
179      -0.000000021936
180      -0.000000138530
181       0.000000191729
182      -0.000000101597
183      -0.000000104787
184      -0.000000063324
185      -0.000000088060
186       0.000000412362
187      -0.000000790990
188       0.000002345918
189       0.000003454585
190       0.000010742871
191      -0.000000676424
192       0.000000151361
193      -0.000000246943
194       0.000005338440
195      -0.000000940050
196       0.000002054272
197       0.000005397747
198      -0.000000012184
199       0.000002545411
200      -0.000000053453
201       0.000000052321
202      -0.000000009033
203       0.000000028168
204      -0.000000063916
205       0.000000280270
206      -0.000000395386
207       0.000000135810
208      -0.000000360247
209       0.000000444067
210      -0.000000100519
211      -0.000000048257
212      -0.000000018577
213       0.000000169125
214      -0.000000037910
215      -0.000000206280
216       0.000000033508
217       0.000000322090
218      -0.000008155448
219      -0.000000875436
220       0.000002011642
221      -0.000000247324
222       0.000000755891
223       0.000000349519
224      -0.000008099448
225      -0.000000893278
226      -0.000000799869
227       0.000001972655
228      -0.000000169245
229       0.000000304103
230      -0.000007957361
231      -0.000000882432
232      -0.000000592170
233      -0.000001506714
234      -0.000001347885
 Sym=     1a
 Ene= -2.64492358131459E+02
 Spin= Alpha
 Occup= 1.000000
  1       0.029588580920
  2       0.037647221705
  3       0.069945198223
  4       0.144395678153
  5       0.206875153103
  6       0.096538281296
  7      -0.451504968151
  8      -0.615368203687
  9      -0.109972725312
 10      -0.003679931626
 11       0.003118842255
 12      -0.002246869104
 13       0.001681807063
 14      -0.001206128019
 15       0.000804868934
 16      -0.000402316062
 17       0.000133423138
 18      -0.000035833905
 19      -0.000001686269
 20      -0.000000880808
 21       0.000002858346
 22      -0.000002179509
 23      -0.000001182039
 24       0.000003722570
 25      -0.000001564156
 26      -0.000000860826
 27       0.000002725188
 28      -0.000000255885
 29      -0.000000136405
 30       0.000000412962
 31       0.000000487365
 32       0.000000249848
 33      -0.000000707961
 34      -0.000001245326
 35      -0.000000621911
 36       0.000001858645
 37       0.000002342333
 38       0.000001170629
 39      -0.000003504094
 40      -0.000004500518
 41      -0.000002209193
 42       0.000006734317
 43       0.000006977167
 44       0.000003363235
 45      -0.000010426175
 46      -0.000003315457
 47      -0.000001685559
 48       0.000006289624
 49      -0.000000404676
 50      -0.000000323693
 51       0.000000436767
 52       0.000000223044
 53       0.000000146014
 54      -0.000000299339
 55       0.000001103230
 56      -0.000001540293
 57      -0.000000888706
 58       0.000000349601
 59       0.000000555341
 60      -0.000000784452
 61       0.000001089415
 62       0.000000623598
 63      -0.000000246907
 64      -0.000000402912
 65       0.000001456660
 66      -0.000002008918
 67      -0.000001131391
 68       0.000000447256
 69       0.000000760766
 70      -0.000003679354
 71       0.000005050403
 72       0.000002849799
 73      -0.000001151305
 74      -0.000001934223
 75       0.000008246540
 76      -0.000011304889
 77      -0.000006379860
 78       0.000002583568
 79       0.000004346420
 80      -0.000015901609
 81       0.000021785067
 82       0.000012304472
 83      -0.000004967142
 84      -0.000008416488
 85       0.000010996770
 86      -0.000015215056
 87      -0.000009557446
 88       0.000004240416
 89       0.000006007947
 90       0.000001586688
 91      -0.000002238095
 92      -0.000000989516
 93       0.000000295175
 94       0.000000680179
 95      -0.000000735484
 96       0.000001022823
 97       0.000000509893
 98      -0.000000182999
 99      -0.000000350519
100       0.000000026480
101       0.000000247727
102       0.000001156181
103      -0.000001316056
104       0.000000960752
105       0.000002078642
106      -0.000000824484
107      -0.000000334442
108      -0.000001517987
109      -0.000008761948
110       0.000009999337
111      -0.000007818144
112      -0.000016176080
113       0.000006473806
114       0.000000003330
115       0.000000542991
116       0.000010126752
117      -0.000012943248
118       0.000007777603
119       0.000019411298
120      -0.000004674617
121      -0.000000324221
122       0.000001613931
123      -0.000003265141
124       0.000009832623
125       0.000014235165
126       0.000042397280
127       0.000000984996
128      -0.000002849887
129       0.000000106952
130      -0.000007962853
131       0.000020967977
132      -0.000001055555
133      -0.000010976757
134       0.000020320134
135      -0.000002162525
136      -0.000000299468
137       0.000000129870
138       0.000000078761
139      -0.000000411312
140      -0.000000246216
141       0.000001822566
142      -0.000000225347
143      -0.000000412616
144       0.000002640083
145       0.000001567745
146       0.000000173700
147       0.000000275028
148      -0.000000636683
149       0.000000280449
150       0.000000064347
151      -0.000000992277
152       0.000000308559
153      -0.000000315475
154       0.000001570609
155      -0.000003184153
156       0.000009714069
157       0.000014477098
158       0.000042616680
159       0.000001185521
160       0.000001990041
161       0.000001852470
162      -0.000008001049
163      -0.000015523986
164      -0.000013891489
165      -0.000004650458
166      -0.000017795798
167      -0.000013245711
168      -0.000000068282
169       0.000000393461
170       0.000000297451
171      -0.000000000580
172       0.000000239929
173       0.000000193933
174      -0.000002425705
175      -0.000001964336
176       0.000000031012
177      -0.000002175011
178       0.000000291226
179      -0.000000103824
180      -0.000000574637
181       0.000000779437
182      -0.000000466413
183      -0.000000454697
184      -0.000000239259
185      -0.000000308781
186       0.000001536594
187      -0.000003117318
188       0.000009471194
189       0.000013683132
190       0.000041087223
191      -0.000002747638
192       0.000000612489
193      -0.000001004537
194       0.000020808921
195      -0.000003688122
196       0.000008009774
197       0.000021537819
198      -0.000000117795
199       0.000010113126
200      -0.000000247165
201       0.000000281021
202      -0.000000053253
203       0.000000214306
204      -0.000000284243
205       0.000001237293
206      -0.000001826560
207       0.000000588716
208      -0.000001777172
209       0.000001853799
210      -0.000000431025
211      -0.000000204248
212      -0.000000070404
213       0.000000712149
214      -0.000000177797
215      -0.000000859761
216       0.000000170372
217       0.000001393207
218      -0.000031643206
219      -0.000003529514
220       0.000007690551
221      -0.000000957844
222       0.000002884851
223       0.000001501898
224      -0.000031411181
225      -0.000003600963
226      -0.000003046884
227       0.000007537919
228      -0.000000642437
229       0.000001322036
230      -0.000030877761
231      -0.000003554535
232      -0.000002276092
233      -0.000005752768
234      -0.000005154724
 Sym=     1a
 Ene= -2.36660314121595E+02
 Spin= Alpha
 Occup= 1.000000
  1       0.000000004286
  2       0.000000004750
  3       0.000000011745
  4       0.000000013036
  5       0.000000045693
  6      -0.000000026019
  7       0.000000058350
  8      -0.000000187211
  9       0.000000050853
 10      -0.000000368364
 11       0.000000700823
 12      -0.000001066275
 13       0.000001741109
 14      -0.000002739980
 15       0.000000502309
 16       0.000007781916
 17      -0.000000739173
 18       0.000000399737
 19       0.118204949486
 20      -0.326374065502
 21      -0.041257195971
 22       0.162098869251
 23      -0.447569056980
 24      -0.056577568650
 25       0.104304685927
 26      -0.287994146801
 27      -0.036405547915
 28       0.005973408951
 29      -0.016493525842
 30      -0.002085016524
 31       0.001846419575
 32      -0.005097271387
 33      -0.000644221377
 34      -0.001287950569
 35       0.003554547437
 36       0.000449077157
 37       0.000793115747
 38      -0.002186923708
 39      -0.000275978975
 40      -0.000528968585
 41       0.001455316644
 42       0.000183171747
 43       0.000376859142
 44      -0.001033733674
 45      -0.000130451888
 46      -0.000080261360
 47       0.000218095791
 48       0.000032196969
 49       0.000043599855
 50      -0.000118050000
 51      -0.000016198803
 52      -0.000011667058
 53       0.000031448353
 54       0.000004143227
 55       0.000000164827
 56      -0.000000454822
 57       0.000000965085
 58       0.000000399549
 59      -0.000000499814
 60       0.000001517738
 61       0.000001640000
 62       0.000001702549
 63       0.000002670842
 64       0.000002729037
 65      -0.000004726076
 66      -0.000005012183
 67      -0.000005530153
 68      -0.000008538556
 69      -0.000008467068
 70       0.000011357389
 71       0.000012067599
 72       0.000013230118
 73       0.000020324965
 74       0.000020401984
 75      -0.000025574088
 76      -0.000027293958
 77      -0.000029727706
 78      -0.000045750117
 79      -0.000046131461
 80       0.000053118922
 81       0.000056845238
 82       0.000061976765
 83       0.000094527802
 84       0.000096210154
 85       0.000024939987
 86       0.000042051467
 87       0.000017881708
 88       0.000067953452
 89       0.000048124564
 90      -0.000007795891
 91      -0.000011888652
 92      -0.000005435485
 93      -0.000019781745
 94      -0.000013928867
 95       0.000004253189
 96       0.000005316268
 97       0.000004162937
 98       0.000008739850
 99       0.000007677986
100       0.000000171391
101       0.000003197314
102      -0.000002956981
103      -0.000003287590
104       0.000003929634
105      -0.000001864758
106       0.000001684731
107      -0.000000988526
108      -0.000028121891
109       0.000026263983
110       0.000029921815
111      -0.000034954754
112       0.000016899538
113      -0.000014700464
114      -0.000002138989
115      -0.000000148058
116      -0.000000982030
117      -0.000005302913
118      -0.000000014444
119      -0.000003638186
120       0.000002389885
121      -0.000000378325
122       0.000001717293
123      -0.000002469986
124       0.000007215980
125       0.000084258007
126       0.000097937700
127      -0.000004071389
128       0.000011517249
129      -0.000000443330
130       0.000040480246
131      -0.000102806516
132       0.000006038071
133       0.000131214906
134      -0.000308616243
135       0.000019746139
136       0.000000862343
137       0.000000295468
138      -0.000000082944
139       0.000001481024
140       0.000000428010
141      -0.000004428841
142      -0.000001532489
143       0.000001728599
144      -0.000008232118
145      -0.000001707558
146      -0.000001388621
147      -0.000002380760
148       0.000005785341
149      -0.000000922970
150      -0.000001612874
151       0.000007540147
152      -0.000002685185
153       0.000000242292
154      -0.000001108433
155       0.000001633720
156      -0.000004630239
157      -0.000049145429
158      -0.000047226089
159       0.000004050298
160       0.000004126642
161       0.000004642706
162      -0.000026850825
163      -0.000044372424
164      -0.000042057892
165      -0.000049083402
166      -0.000156498798
167      -0.000122391449
168       0.000000543959
169       0.000001999502
170      -0.000000369734
171       0.000001705651
172       0.000001469081
173      -0.000002038850
174      -0.000010303276
175       0.000001560849
176      -0.000008717137
177      -0.000008209627
178       0.000002110686
179      -0.000001758505
180      -0.000002878813
181       0.000002495141
182      -0.000003376368
183      -0.000001681334
184      -0.000000705794
185       0.000000242289
186      -0.000001139980
187       0.000001829697
188      -0.000004892722
189      -0.000039456310
190      -0.000057845156
191      -0.000004610723
192       0.000000018577
193      -0.000002074214
194       0.000042643894
195      -0.000003403763
196       0.000017828156
197       0.000129196582
198      -0.000027296229
199       0.000049800680
200       0.000000315851
201       0.000000794891
202       0.000000249082
203       0.000000655231
204       0.000001419413
205      -0.000000900533
206      -0.000004258145
207      -0.000000952842
208      -0.000003352648
209      -0.000004892781
210      -0.000002043417
211      -0.000000405494
212      -0.000000294545
213       0.000002853549
214       0.000000196086
215      -0.000002870436
216      -0.000000515747
217       0.000002988319
218      -0.000094909004
219      -0.000028590814
220       0.000021808612
221       0.000002461330
222       0.000009847282
223      -0.000006902375
224       0.000233474173
225       0.000073974198
226       0.000023019335
227      -0.000052352596
228       0.000005690227
229       0.000002988070
230      -0.000143314011
231      -0.000047730939
232      -0.000011664660
233      -0.000023684850
234      -0.000023657990
 Sym=     1a
 Ene= -2.36660298856659E+02
 Spin= Alpha
 Occup= 1.000000
  1      -0.000000008443
  2      -0.000000011260
  3      -0.000000018285
  4      -0.000000046948
  5      -0.000000046860
  6      -0.000000058130
  7       0.000000214092
  8       0.000000029781
  9       0.000000285649
 10      -0.000000511305
 11       0.000000859399
 12      -0.000001383365
 13       0.000002170303
 14      -0.000003249487
 15      -0.000000315263
 16       0.000013482676
 17      -0.000004809238
 18       0.000001224107
 19       0.278161219085
 20       0.075752885670
 21       0.197692649776
 22       0.381453060872
 23       0.103882852288
 24       0.271103468635
 25       0.245450841359
 26       0.066844688678
 27       0.174444957348
 28       0.014057367999
 29       0.003828463799
 30       0.009990818659
 31       0.004343687792
 32       0.001182615831
 33       0.003086962883
 34      -0.003028314650
 35      -0.000824116842
 36      -0.002151979074
 37       0.001861779563
 38       0.000505954401
 39       0.001322681898
 40      -0.001236576533
 41      -0.000334680419
 42      -0.000877863748
 43       0.000876004750
 44       0.000234452122
 45       0.000621111658
 46      -0.000190725201
 47      -0.000058959024
 48      -0.000143058599
 49       0.000101528587
 50       0.000030917058
 51       0.000074882708
 52      -0.000027294387
 53      -0.000008628060
 54      -0.000020174644
 55      -0.000000970811
 56      -0.000000487262
 57       0.000000027887
 58       0.000000369100
 59       0.000000489664
 60      -0.000000952323
 61       0.000000837988
 62      -0.000002428323
 63       0.000003544849
 64      -0.000001898316
 65       0.000003248213
 66      -0.000002526485
 67       0.000007660630
 68      -0.000011108155
 69       0.000005781880
 70      -0.000007641602
 71       0.000006099909
 72      -0.000018323217
 73       0.000026623956
 74      -0.000013828619
 75       0.000017083961
 76      -0.000013835903
 77       0.000041379846
 78      -0.000060009652
 79       0.000031265876
 80      -0.000035117392
 81       0.000029500626
 82      -0.000085582270
 83       0.000125114731
 84      -0.000064532295
 85      -0.000016973619
 86       0.000006920991
 87      -0.000046460987
 88       0.000049016513
 89      -0.000054580863
 90       0.000005534425
 91      -0.000001970064
 92       0.000013621099
 93      -0.000015318911
 94       0.000016104619
 95      -0.000002797565
 96       0.000001886059
 97      -0.000006929303
 98       0.000009296640
 99      -0.000006508873
100       0.000005258391
101       0.000000100891
102      -0.000002834695
103      -0.000001661462
104      -0.000002370143
105       0.000000755910
106      -0.000002213162
107      -0.000047225491
108      -0.000000903058
109       0.000024779985
110       0.000015356993
111       0.000020687937
112      -0.000006609070
113       0.000019403253
114       0.000005624891
115       0.000000890881
116      -0.000001386532
117       0.000000619376
118       0.000001230073
119      -0.000001110681
120      -0.000004051670
121      -0.000000017446
122       0.000000068620
123      -0.000000048686
124       0.000000332539
125       0.000007194498
126      -0.000004621848
127       0.000000621431
128       0.000001652933
129       0.000000801006
130       0.000000892112
131      -0.000013016844
132      -0.000002275094
133       0.000027384866
134      -0.000029196085
135       0.000012381347
136       0.000000273615
137       0.000000520159
138      -0.000001372230
139       0.000001523980
140      -0.000001516924
141      -0.000000859977
142      -0.000002533251
143       0.000006006107
144      -0.000006552087
145       0.000006747999
146       0.000000580144
147      -0.000000147749
148       0.000001228978
149       0.000000372993
150       0.000000250261
151       0.000000144158
152      -0.000001569575
153      -0.000000246898
154       0.000001084945
155      -0.000001380276
156       0.000003180312
157       0.000059874053
158       0.000076250717
159      -0.000004019688
160      -0.000006886747
161      -0.000005934867
162       0.000030771544
163       0.000063177333
164       0.000054521484
165       0.000080124210
166       0.000185243937
167       0.000160543866
168       0.000000226873
169      -0.000000362860
170      -0.000000623103
171       0.000000450123
172      -0.000001056434
173      -0.000001498242
174       0.000004575937
175       0.000003772921
176      -0.000000993993
177       0.000007195584
178      -0.000002752996
179       0.000001061279
180       0.000003285651
181      -0.000005143220
182       0.000003251332
183       0.000002356920
184       0.000002079880
185       0.000000341168
186      -0.000001545344
187       0.000002201182
188      -0.000006160964
189      -0.000074495478
190      -0.000079361138