[Molden Format]
[Title]
 Molden file created by orca_2mkl for BaseName=/home/nikolayandreadi_2125/_scratch/F_cc/Pr_F_cc

[Atoms] AU
Pr   1  59          0.4069563024         0.6259680024        -1.1119129675 
F    2   9         -1.5840629318        -2.2709821609        -3.0161578673 
F    3   9         -1.4870935249         3.7234048804         0.5008813604 
F    4   9          3.9876320577        -0.2067473774         0.3854398806 
[GTO]
  1 0
s   6 1.0 
   961538.7552820001      1791.2119698187
   427350.5579030000      -464.6976799751
   189933.5812900000      1059.7453352467
    84414.9250180000       265.3867821965
    37517.7444520000       670.9029254951
    16674.5530900000       532.5812088880
s   1 1.0 
     7410.9124840000       569.2641778037
s   1 1.0 
     3293.7388820000       309.8681698966
s   1 1.0 
     1463.8839480000       168.6708675443
s   1 1.0 
      650.6150880000        91.8127911014
s   1 1.0 
      289.1622610000        49.9765533033
s   1 1.0 
      128.5165610000        27.2037900206
s   1 1.0 
       57.1184710000        14.8078675854
s   1 1.0 
       25.3859870000         8.0603821431
s   1 1.0 
       11.2826610000         4.3875163396
s   1 1.0 
        5.0145160000         2.3882613934
s   1 1.0 
        2.2286740000         1.3000049386
s   1 1.0 
        0.9905220000         0.7076331774
s   1 1.0 
        0.4402320000         0.3851867133
s   1 1.0 
        0.1956590000         0.2096693575
s   1 1.0 
        0.0869590000         0.1141289955
s   1 1.0 
        0.0386490000         0.0621246262
s   1 1.0 
        0.0171770000         0.0338158711
p   5 1.0 
    12926.8771060000      2243.4411625356
     5170.7508420000       970.3267113047
     2068.3003370000      1541.0095733413
      827.3201350000      1562.6929899323
      330.9280540000      1504.3140347474
p   1 1.0 
      132.3712220000       640.0030748661
p   1 1.0 
       52.9484890000       203.5902856660
p   1 1.0 
       21.1793950000        64.7637556472
p   1 1.0 
        8.4717580000        20.6018876605
p   1 1.0 
        3.3887030000         6.5536308020
p   1 1.0 
        1.3554810000         2.0847639131
p   1 1.0 
        0.5421930000         0.6631816039
p   1 1.0 
        0.2168770000         0.2109633238
p   1 1.0 
        0.0867510000         0.0671093759
p   1 1.0 
        0.0347000000         0.0213477413
p   1 1.0 
        0.0138800000         0.0067908935
d   4 1.0 
      877.6091640000      3337.5212855414
      319.1306050000      3244.8563107122
      116.0474930000      3005.5140400133
       42.1990880000      1583.5704970499
d   1 1.0 
       15.3451230000       339.1706298333
d   1 1.0 
        5.5800450000        57.7545309127
d   1 1.0 
        2.0291070000         9.8345330570
d   1 1.0 
        0.7378570000         1.6746399082
d   1 1.0 
        0.2683120000         0.2851610810
d   1 1.0 
        0.0975680000         0.0485576922
d   1 1.0 
        0.0354790000         0.0082683715
d   1 1.0 
        0.0129020000         0.0014080559
f   4 1.0 
       20.9298010000       586.8186602000
        6.9766000000       151.0188164213
        2.3255330000        19.5194371871
        0.7751780000         1.2419682566
f   1 1.0 
        0.2583930000         0.2714136926
f   1 1.0 
        0.0861310000         0.0229144232

  2 0
s   6 1.0 
    35479.1004410000         1.9229128581
     5318.4728983000         2.2734773358
     1210.4810975000         3.4747482552
      342.8551814000         5.2879612972
      112.0194318100         7.1666332516
       40.7147402500         7.7556346254
s   1 1.0 
       16.0396781100         5.7122450312
s   1 1.0 
        6.5038186700         2.9025947842
s   1 1.0 
        1.5440477500         0.9872011154
s   1 1.0 
        0.6122345300        -0.4932856223
s   1 1.0 
        0.2402798000         0.2445952611
p   4 1.0 
       80.2339004800         4.2755032106
       18.5940107400         4.7314752302
        5.6867902700         4.0864798013
        1.9511006300         2.2989954518
p   1 1.0 
        0.6697021100         0.8635593126
p   1 1.0 
        0.2165130000         0.2105208234
d   1 1.0 
        3.1070000000        20.7284714039
d   1 1.0 
        0.8550000000         2.1672588463
f   1 1.0 
        1.9170000000        24.6547062912

  3 0
s   6 1.0 
    35479.1004410000         1.9229128581
     5318.4728983000         2.2734773358
     1210.4810975000         3.4747482552
      342.8551814000         5.2879612972
      112.0194318100         7.1666332516
       40.7147402500         7.7556346254
s   1 1.0 
       16.0396781100         5.7122450312
s   1 1.0 
        6.5038186700         2.9025947842
s   1 1.0 
        1.5440477500         0.9872011154
s   1 1.0 
        0.6122345300        -0.4932856223
s   1 1.0 
        0.2402798000         0.2445952611
p   4 1.0 
       80.2339004800         4.2755032106
       18.5940107400         4.7314752302
        5.6867902700         4.0864798013
        1.9511006300         2.2989954518
p   1 1.0 
        0.6697021100         0.8635593126
p   1 1.0 
        0.2165130000         0.2105208234
d   1 1.0 
        3.1070000000        20.7284714039
d   1 1.0 
        0.8550000000         2.1672588463
f   1 1.0 
        1.9170000000        24.6547062912

  4 0
s   6 1.0 
    35479.1004410000         1.9229128581
     5318.4728983000         2.2734773358
     1210.4810975000         3.4747482552
      342.8551814000         5.2879612972
      112.0194318100         7.1666332516
       40.7147402500         7.7556346254
s   1 1.0 
       16.0396781100         5.7122450312
s   1 1.0 
        6.5038186700         2.9025947842
s   1 1.0 
        1.5440477500         0.9872011154
s   1 1.0 
        0.6122345300        -0.4932856223
s   1 1.0 
        0.2402798000         0.2445952611
p   4 1.0 
       80.2339004800         4.2755032106
       18.5940107400         4.7314752302
        5.6867902700         4.0864798013
        1.9511006300         2.2989954518
p   1 1.0 
        0.6697021100         0.8635593126
p   1 1.0 
        0.2165130000         0.2105208234
d   1 1.0 
        3.1070000000        20.7284714039
d   1 1.0 
        0.8550000000         2.1672588463
f   1 1.0 
        1.9170000000        24.6547062912

[5D]
[7F]
[9G]
[MO]
 Sym=     1a
 Ene= -1.54907817493761E+03
 Spin= Alpha
 Occup= 1.000000
  1       0.079152458119
  2       0.092431795871
  3       0.170065342548
  4       0.298778555995
  5       0.347531976534
  6       0.177932443936
  7       0.011289084817
  8       0.003100941408
  9      -0.002252770540
 10       0.001480424097
 11      -0.001000592417
 12       0.000672885366
 13      -0.000446692696
 14       0.000296865913
 15      -0.000187769899
 16       0.000098121632
 17      -0.000040497888
 18       0.000011105920
 19       0.000000019063
 20       0.000000110240
 21      -0.000000232988
 22      -0.000000049317
 23      -0.000000105046
 24       0.000000220562
 25       0.000000034658
 26       0.000000080277
 27      -0.000000162493
 28      -0.000000043913
 29      -0.000000090473
 30       0.000000175874
 31       0.000000064080
 32       0.000000124646
 33      -0.000000235111
 34      -0.000000106552
 35      -0.000000195469
 36       0.000000363296
 37       0.000000187277
 38       0.000000342004
 39      -0.000000643225
 40      -0.000000317952
 41      -0.000000587448
 42       0.000001152147
 43       0.000000389189
 44       0.000000733556
 45      -0.000001509158
 46      -0.000000175236
 47      -0.000000315923
 48       0.000000470479
 49      -0.000000024089
 50      -0.000000046078
 51       0.000000142067
 52       0.000000008982
 53       0.000000017395
 54      -0.000000048812
 55      -0.000000134252
 56       0.000000097860
 57       0.000000152010
 58       0.000000022188
 59      -0.000000025586
 60       0.000000200203
 61      -0.000000164845
 62      -0.000000254376
 63      -0.000000029018
 64       0.000000067826
 65      -0.000000351678
 66       0.000000319409
 67       0.000000488356
 68       0.000000050087
 69      -0.000000154498
 70       0.000000654340
 71      -0.000000608389
 72      -0.000000928063
 73      -0.000000091854
 74       0.000000311332
 75      -0.000001321520
 76       0.000001239678
 77       0.000001889642
 78       0.000000186887
 79      -0.000000650896
 80       0.000002242788
 81      -0.000002101988
 82      -0.000003204255
 83      -0.000000323810
 84       0.000001133531
 85      -0.000000970304
 86       0.000000910272
 87       0.000001354998
 88       0.000000161768
 89      -0.000000464315
 90      -0.000000254797
 91       0.000000235774
 92       0.000000360271
 93       0.000000040001
 94      -0.000000138184
 95       0.000000090861
 96      -0.000000084121
 97      -0.000000128040
 98      -0.000000014580
 99       0.000000048989
100      -0.000000098903
101      -0.000000035867
102      -0.000000027069
103       0.000000120675
104      -0.000000357963
105      -0.000000377787
106       0.000000111497
107       0.000000783164
108       0.000000272396
109       0.000000202162
110      -0.000000929297
111       0.000002761473
112       0.000002916662
113      -0.000000861291
114      -0.000000583196
115      -0.000000218998
116      -0.000000177973
117       0.000000712931
118      -0.000002112485
119      -0.000002234888
120       0.000000662444
121       0.000000080160
122      -0.000000374294
123       0.000000718623
124      -0.000002149139
125      -0.000003440421
126      -0.000001987159
127      -0.000000242911
128      -0.000000372544
129      -0.000000232664
130       0.000001230585
131       0.000001851615
132       0.000001181676
133       0.000000743330
134       0.000000994946
135       0.000000714615
136       0.000000043777
137      -0.000000101479
138      -0.000000154815
139       0.000000072587
140      -0.000000166447
141      -0.000000246570
142       0.000000607848
143       0.000000904628
144      -0.000000391440
145       0.000000956506
146       0.000000061592
147      -0.000000003256
148      -0.000000005553
149       0.000000023843
150      -0.000000069172
151      -0.000000031201
152       0.000000011541
153       0.000000074066
154      -0.000000347270
155       0.000000671729
156      -0.000002078200
157      -0.000003424891
158      -0.000001876508
159      -0.000000209173
160       0.000000364943
161       0.000000206119
162       0.000001147434
163      -0.000001952818
164      -0.000001064931
165       0.000000782946
166      -0.000001186516
167      -0.000000542309
168       0.000000044297
169       0.000000079060
170      -0.000000129713
171       0.000000080585
172       0.000000134135
173      -0.000000329408
174      -0.000000491319
175       0.000000805326
176      -0.000000493238
177      -0.000000895647
178      -0.000000069279
179       0.000000025721
180      -0.000000015872
181      -0.000000052347
182      -0.000000073824
183      -0.000000078143
184      -0.000000018921
185       0.000000072811
186      -0.000000341698
187       0.000000662064
188      -0.000002063583
189      -0.000003433701
190      -0.000001913684
191       0.000000409015
192      -0.000000093542
193       0.000000185513
194      -0.000002230107
195       0.000000511834
196      -0.000000975718
197      -0.000001376415
198       0.000000323751
199      -0.000000510305
200       0.000000051761
201      -0.000000131647
202       0.000000033879
203      -0.000000139044
204       0.000000065808
205      -0.000000377601
206       0.000000844133
207      -0.000000205371
208       0.000000929559
209      -0.000000448510
210      -0.000000069351
211      -0.000000031809
212       0.000000020431
213       0.000000088308
214      -0.000000025031
215      -0.000000062702
216       0.000000062565
 Sym=     1a
 Ene= -2.53691091827044E+02
 Spin= Alpha
 Occup= 1.000000
  1       0.028911539179
  2       0.037022603894
  3       0.069305968839
  4       0.143603851196
  5       0.207158912629
  6       0.099440377089
  7      -0.447227127940
  8      -0.618115817561
  9      -0.112974585481
 10      -0.003582872333
 11       0.002973182661
 12      -0.002132603252
 13       0.001586442210
 14      -0.001105166453
 15       0.000705106312
 16      -0.000369108251
 17       0.000152901347
 18      -0.000042048292
 19       0.000003544902
 20       0.000000563568
 21      -0.000001092074
 22       0.000004802180
 23       0.000000694187
 24      -0.000001340505
 25       0.000004066865
 26       0.000000359919
 27      -0.000000637692
 28       0.000001008821
 29      -0.000000263552
 30       0.000000700468
 31      -0.000000164270
 32      -0.000000168455
 33       0.000000245477
 34       0.000000410556
 35       0.000000629694
 36      -0.000001140355
 37      -0.000000673032
 38      -0.000001212919
 39       0.000002269825
 40       0.000001185215
 41       0.000002195207
 42      -0.000004327678
 43      -0.000001482011
 44      -0.000002837568
 45       0.000005905273
 46       0.000000650984
 47       0.000001132988
 48      -0.000001684174
 49       0.000000096776
 50       0.000000204375
 51      -0.000000594250
 52      -0.000000035513
 53      -0.000000074019
 54       0.000000200370
 55       0.000018499918
 56      -0.000012976256
 57      -0.000020184980
 58      -0.000003070294
 59       0.000003132932
 60      -0.000000761685
 61       0.000000810646
 62       0.000001191701
 63       0.000000161473
 64      -0.000000385765
 65       0.000000481918
 66      -0.000000533451
 67      -0.000000786561
 68      -0.000000081716
 69       0.000000369460
 70      -0.000002355366
 71       0.000002244400
 72       0.000003399602
 73       0.000000357446
 74      -0.000001167814
 75       0.000005133477
 76      -0.000004825096
 77      -0.000007341450
 78      -0.000000738600
 79       0.000002548131
 80      -0.000008819897
 81       0.000008275554
 82       0.000012594941
 83       0.000001293124
 84      -0.000004484481
 85       0.000003556356
 86      -0.000003336853
 87      -0.000004973993
 88      -0.000000591495
 89       0.000001709697
 90       0.000001029972
 91      -0.000000953786
 92      -0.000001452218
 93      -0.000000163503
 94       0.000000554406
 95      -0.000000362872
 96       0.000000336012
 97       0.000000510054
 98       0.000000058720
 99      -0.000000194479
100       0.000000520154
101       0.000000198903
102       0.000000094775
103      -0.000000604257
104       0.000001651880
105       0.000001771661
106      -0.000000541023
107      -0.000003185229
108      -0.000001109329
109      -0.000000804195
110       0.000003766908
111      -0.000011133679
112      -0.000011772030
113       0.000003484915
114       0.000002254840
115       0.000000840781
116       0.000000672650
117      -0.000002746808
118       0.000008124046
119       0.000008592447
120      -0.000002549178
121      -0.000000254001
122       0.000001297209
123      -0.000002663250
124       0.000008189609
125       0.000012794699
126       0.000006811240
127       0.000000986351
128       0.000001508905
129       0.000000944302
130      -0.000004726687
131      -0.000007115369
132      -0.000004546264
133      -0.000003025475
134      -0.000004076493
135      -0.000002899320
136      -0.000000178136
137       0.000000424777
138       0.000000645783
139      -0.000000302263
140       0.000000698569
141       0.000000967532
142      -0.000002413675
143      -0.000003591909
144       0.000001560754
145      -0.000003812615
146      -0.000000196232
147       0.000000007690
148       0.000000014264
149      -0.000000066756
150       0.000000201651
151       0.000000065853
152      -0.000000031830
153      -0.000000236872
154       0.000001210779
155      -0.000002505241
156       0.000007950448
157       0.000012771790
158       0.000006396140
159       0.000000857142
160      -0.000001490103
161      -0.000000838559
162      -0.000004414231
163       0.000007524739
164       0.000004096883
165      -0.000003169613
166       0.000004821565
167       0.000002237264
168      -0.000000191159
169      -0.000000338981
170       0.000000547262
171      -0.000000344180
172      -0.000000575558
173       0.000001311499
174       0.000001971775
175      -0.000003207921
176       0.000001980152
177       0.000003579539
178       0.000000220958
179      -0.000000096320
180       0.000000051399
181       0.000000171091
182       0.000000221424
183       0.000000235564
184       0.000000070246
185      -0.000000233227
186       0.000001192605
187      -0.000002471716
188       0.000007897669
189       0.000012799386
190       0.000006500921
191      -0.000001674782
192       0.000000383601
193      -0.000000757188
194       0.000008597463
195      -0.000001968935
196       0.000003757192
197       0.000005611568
198      -0.000001324686
199       0.000002110829
200      -0.000000223836
201       0.000000561888
202      -0.000000148055
203       0.000000600357
204      -0.000000283044
205       0.000001507164
206      -0.000003375449
207       0.000000833978
208      -0.000003728393
209       0.000001792337
210       0.000000221169
211       0.000000105558
212      -0.000000077189
213      -0.000000280031
214       0.000000064880
215       0.000000187133
216      -0.000000198551
 Sym=     1a
 Ene= -2.27174223342413E+02
 Spin= Alpha
 Occup= 1.000000
  1      -0.000000209245
  2      -0.000000268447
  3      -0.000000503542
  4      -0.000001045290
  5      -0.000001521538
  6      -0.000000712622
  7       0.000003567852
  8       0.000004962833
  9      -0.000000809321
 10       0.000000399323
 11      -0.000000570866
 12       0.000001140877
 13      -0.000001590971
 14       0.000001088633
 15       0.000000027495
 16       0.000001785012
 17      -0.000000946067
 18       0.000000284872
 19       0.220264163919
 20       0.209959604373
 21       0.169688581182
 22       0.302991356879
 23       0.288816509396
 24       0.233420266892
 25       0.195540519880
 26       0.186392442642
 27       0.150641751239
 28       0.011463517223
 29       0.010927142830
 30       0.008829842597
 31       0.003422047765
 32       0.003262079192
 33       0.002638524988
 34      -0.002377645012
 35      -0.002266651685
 36      -0.001835632869
 37       0.001438006055
 38       0.001371142319
 39       0.001115141785
 40      -0.000914110284
 41      -0.000871819264
 42      -0.000717878251
 43       0.000584606956
 44       0.000557609945
 45       0.000467720450
 46      -0.000235773931
 47      -0.000227261685
 48      -0.000176629054
 49       0.000098904287
 50       0.000094561545
 51       0.000071078678
 52      -0.000032466450
 53      -0.000031007683
 54      -0.000023558505
 55       0.000000451167
 56      -0.000000574349
 57      -0.000000293766
 58      -0.000000240697
 59      -0.000001864666
 60      -0.000000502373
 61      -0.000000505373
 62      -0.000000982376
 63       0.000000747737
 64      -0.000001892875
 65       0.000000523129
 66       0.000000805374
 67       0.000003155917
 68      -0.000003729974
 69       0.000006939390
 70      -0.000001768243
 71      -0.000002575305
 72      -0.000008488099
 73       0.000009503844
 74      -0.000018566427
 75       0.000004073202
 76       0.000005832243
 77       0.000019398602
 78      -0.000021874023
 79       0.000042422348
 80      -0.000007863787
 81      -0.000010448349
 82      -0.000035448318
 83       0.000040367292
 84      -0.000077994880
 85      -0.000003798234
 86      -0.000003632383
 87      -0.000012979519
 88       0.000014295771
 89      -0.000026122198
 90       0.000002452829
 91       0.000003092706
 92       0.000010464651
 93      -0.000011859515
 94       0.000022808896
 95      -0.000000741619
 96      -0.000000932837
 97      -0.000003172530
 98       0.000003610975
 99      -0.000006956762
100       0.000004588220
101      -0.000000419380
102      -0.000000239452
103      -0.000000408605
104      -0.000002260691
105      -0.000000764043
106       0.000000272001
107      -0.000045120983
108      -0.000002118458
109       0.000002815596
110      -0.000000107821
111       0.000015371767
112      -0.000000368676
113       0.000005821767
114       0.000013394250
115       0.000000224107
116      -0.000002106839
117       0.000001251602
118      -0.000006551562
119       0.000001676642
120      -0.000002039501
121       0.000000328034
122      -0.000001869437
123       0.000004345310
124      -0.000016906333
125      -0.000003450131
126       0.000084140705
127      -0.000003993689
128      -0.000006275279
129      -0.000003882519
130       0.000020176789
131       0.000030880205
132       0.000019352277
133       0.000040736187
134       0.000056512982
135       0.000039715749
136       0.000000907033
137      -0.000002188494
138      -0.000003407966
139       0.000001555556
140      -0.000003256298
141      -0.000005213178
142       0.000012819097
143       0.000019471411
144      -0.000008513525
145       0.000019401771
146       0.000000524330
147      -0.000000099530
148      -0.000000183393
149       0.000000209438
150      -0.000001128926
151      -0.000001023824
152       0.000000509320
153      -0.000000064346
154       0.000000403745
155      -0.000001079415
156       0.000005449689
157       0.000001704989
158      -0.000028739440
159       0.000002988085
160      -0.000001273880
161      -0.000000428798
162      -0.000012836925
163       0.000008955759
164       0.000003767722
165      -0.000003881778
166       0.000026198198
167       0.000015729810
168      -0.000000930654
169      -0.000000956330
170       0.000000124168
171       0.000001005617
172      -0.000001824452
173       0.000004507561
174       0.000005004086
175      -0.000003186605
176      -0.000001653252
177       0.000009831568
178       0.000000364621
179       0.000000416761
180      -0.000000463001
181       0.000001267550
182       0.000000278883
183       0.000000717786
184      -0.000001403957
185      -0.000000115877
186       0.000000717850
187      -0.000001889706
188       0.000009207095
189       0.000000723061
190      -0.000057594735
191      -0.000004155392
192       0.000002477022
193      -0.000001440773
194       0.000023063739
195      -0.000010440116
196       0.000008557349
197       0.000048270965
198      -0.000002592415
199       0.000022340472
200      -0.000001166413
201       0.000001323101
202      -0.000000865412
203       0.000001324598
204      -0.000002175170
205       0.000006634799
206      -0.000009772012
207       0.000004234905
208      -0.000010702564
209       0.000010617868
210       0.000000655639
211      -0.000000190626
212       0.000000239559
213      -0.000001328421
214      -0.000000128747
215       0.000001612772
216       0.000000280731
 Sym=     1a
 Ene= -2.27173508633445E+02
 Spin= Alpha
 Occup= 1.000000
  1      -0.000000234964
  2      -0.000000301824
  3      -0.000000563769
  4      -0.000001177966
  5      -0.000001696586
  6      -0.000000825112
  7       0.000004040933
  8       0.000005360608
  9      -0.000000415958
 10      -0.000000123099
 11       0.000000288012
 12      -0.000000283513
 13       0.000000420053
 14      -0.000000582243
 15       0.000000985434
 16      -0.000001320143
 17       0.000000055029
 18       0.000000005966
 19       0.254494210408
 20      -0.234557004203
 21      -0.040123602494
 22       0.350077828398
 23      -0.322652438573
 24      -0.055193300505
 25       0.225926402804
 26      -0.208227083641
 27      -0.035619525428
 28       0.013243092654
 29      -0.012205282295
 30      -0.002087862447
 31       0.003954896828
 32      -0.003645593419
 33      -0.000623581528
 34      -0.002747854388
 35       0.002533541325
 36       0.000433313829
 37       0.001662907572
 38      -0.001534394601
 39      -0.000262318267
 40      -0.001059202982
 41       0.000979304979
 42       0.000167134425
 43       0.000680077335
 44      -0.000630571623
 45      -0.000107296164
 46      -0.000268348237
 47       0.000248290777
 48       0.000043519429
 49       0.000112482116
 50      -0.000102887811
 51      -0.000017897557
 52      -0.000037012669
 53       0.000033874615
 54       0.000005871739
 55       0.000000395066
 56       0.000001108849
 57      -0.000000555200
 58      -0.000000324963
 59       0.000001183198
 60       0.000000068020
 61       0.000001335751
 62      -0.000000654444
 63       0.000001376917
 64       0.000001006443
 65       0.000000170952
 66      -0.000005792018
 67       0.000003666362
 68      -0.000005189035
 69      -0.000002833011
 70      -0.000000246021
 71       0.000014999243
 72      -0.000009298260
 73       0.000013659259
 74       0.000007977428
 75       0.000000547010
 76      -0.000034363342
 77       0.000021406761
 78      -0.000031518261
 79      -0.000018259498
 80      -0.000000981374
 81       0.000063607194
 82      -0.000039751782
 83       0.000058707269
 84       0.000033799085
 85       0.000000038645
 86       0.000021947374
 87      -0.000014312004
 88       0.000022337934
 89       0.000011894330
 90       0.000000232513
 91      -0.000018589211
 92       0.000011676594
 93      -0.000017376599
 94      -0.000009929419
 95      -0.000000074303
 96       0.000005672420
 97      -0.000003559766
 98       0.000005281434
 99       0.000003023821
100      -0.000001043420
101       0.000000676260
102      -0.000000821718
103      -0.000003324853
104      -0.000001678931
105      -0.000001718302
106      -0.000002798105
107       0.000008128098
108      -0.000009893327
109       0.000005512624
110       0.000040114870
111       0.000012200168
112       0.000005872246
113       0.000019582222
114      -0.000002767294
115       0.000004989477
116      -0.000002782431
117      -0.000012163090
118      -0.000003252806
119      -0.000001470562
120      -0.000003828159
121      -0.000000055155
122       0.000000318111
123      -0.000000753401
124       0.000003100859
125       0.000001525436
126      -0.000012028678
127       0.000002510693
128      -0.000000199410
129       0.000000537542
130      -0.000009586182
131      -0.000001242912
132      -0.000003039358
133       0.000003783062
134      -0.000016374657
135      -0.000006811327
136      -0.000000267428
137       0.000001021159
138      -0.000000008670
139       0.000001661776
140       0.000001263101
141       0.000001239872
142      -0.000004571047
143      -0.000001337081
144      -0.000004977817
145      -0.000005788116
146      -0.000000093941
147       0.000000213326
148       0.000000021998
149      -0.000001295451
150      -0.000000205318
151       0.000000606777
152       0.000001571413
153       0.000000206426
154      -0.000001238568
155       0.000003119697
156      -0.000014141754
157      -0.000000945005
158       0.000087119616
159      -0.000003155640
160       0.000005750259
161       0.000003479539
162       0.000017487827
163      -0.000030527418
164      -0.000017584620
165       0.000039610632
166      -0.000061780694
167      -0.000028684163
168       0.000000817465
169       0.000001454694
170      -0.000002859992
171       0.000001742198
172       0.000002576622
173      -0.000006118227
174      -0.000009474821
175       0.000017152269
176      -0.000010419382
177      -0.000017299007
178      -0.000000856926
179       0.000000176171
180      -0.000000637829
181      -0.000000181799
182      -0.000001333208
183      -0.000001494454
184      -0.000000377005
185      -0.000000157391
186       0.000000954650
187      -0.000002443372
188       0.000011354915
189       0.000000226439
190      -0.000073072823
191      -0.000005346413
192       0.000000448827
193      -0.000003027539
194       0.000028754615
195      -0.000004002835
196       0.000014734283
197       0.000059597655
198      -0.000018421322
199       0.000019816584
200      -0.000000522666
201       0.000002746522
202      -0.000000232414
203       0.000002572485
204      -0.000000407771
205       0.000004916414
206      -0.000016019297
207       0.000002304389
208      -0.000016149613
209       0.000004819502
210       0.000000660202
211       0.000000993751
212      -0.000000109490
213      -0.000000491887
214       0.000000976441
215       0.000000665990
216      -0.000001363875
 Sym=     1a
 Ene= -2.27167688773011E+02
 Spin= Alpha
 Occup= 1.000000
  1      -0.000000135559
  2      -0.000000159862
  3      -0.000000365101
  4      -0.000000519296
  5      -0.000001316001
  6       0.000000423030
  7      -0.000000082182
  8       0.000004601229
  9      -0.000001674437
 10       0.000009833511
 11      -0.000017968464
 12       0.000028625642
 13      -0.000046957694
 14       0.000066327555
 15      -0.000037423982
 16      -0.000041349569
 17       0.000026058237
 18      -0.000005895555
 19       0.090058497398
 20       0.149314267291
 21      -0.301651135926
 22       0.123884257620
 23       0.205396236509
 24      -0.414950088526
 25       0.079943122655
 26       0.132543302815
 27      -0.267769718530
 28       0.004685368296
 29       0.007767428124
 30      -0.015690100974
 31       0.001395332652
 32       0.002314612519
 33      -0.004678998622
 34      -0.000961617458
 35      -0.001596471307
 36       0.003230373279
 37       0.000568276224
 38       0.000946199742
 39      -0.001921125655
 40      -0.000336341422
 41      -0.000565255077
 42       0.001160087316
 43       0.000191516487
 44       0.000327303743
 45      -0.000684585664
 46      -0.000114448293
 47      -0.000185979878
 48       0.000367561941
 49       0.000055066508
 50       0.000088299994
 51      -0.000171403414
 52      -0.000017384878
 53      -0.000027980202
 54       0.000054554334
 55       0.000000193826
 56       0.000001232358
 57       0.000000116478
 58      -0.000000411015
 59      -0.000000504234
 60       0.000000838023
 61       0.000000045110
 62      -0.000000639536
 63      -0.000000391909
 64       0.000000194421
 65      -0.000000470536
 66       0.000000707557
 67       0.000000480830
 68       0.000000377984
 69      -0.000000993039
 70       0.000001956614
 71      -0.000001554461