[Molden Format]
[Title]
 Molden file created by orca_2mkl for BaseName=/home/smirnovaanastasia2304_2125/_scratch/O2_cc/Ce_O2_cc

[Atoms] AU
Ce   1  58         -0.2230084708        -0.7147832410        -1.7032177234 
O    2   8         -1.5600898660         2.8441360973        -0.5268518667 
O    3   8          2.9580355606        -0.4677412332        -0.6479171715 
[GTO]
  1 0
s   6 1.0 
   928839.8476080000      1720.3140985147
   412817.7100480000      -444.1821597056
   183474.5377990000      1020.2336346955
    81544.2390220000       259.7896176938
    36241.8840100000       650.9759730419
    16107.5040040000       521.6380289536
s   1 1.0 
     7158.8906690000       554.6824046748
s   1 1.0 
     3181.7291860000       301.9308579294
s   1 1.0 
     1414.1018600000       164.3503420785
s   1 1.0 
      628.4897160000        89.4609949684
s   1 1.0 
      279.3287630000        48.6963977223
s   1 1.0 
      124.1461170000        26.5069615136
s   1 1.0 
       55.1760520000        14.4285622978
s   1 1.0 
       24.5226900000         7.8539145759
s   1 1.0 
       10.8989730000         4.2751295007
s   1 1.0 
        4.8439880000         2.3270857469
s   1 1.0 
        2.1528840000         1.2667052334
s   1 1.0 
        0.9568370000         0.6895068146
s   1 1.0 
        0.4252610000         0.3753200446
s   1 1.0 
        0.1890050000         0.2042984455
s   1 1.0 
        0.0840020000         0.1112057675
s   1 1.0 
        0.0373340000         0.0605324824
s   1 1.0 
        0.0165930000         0.0329498754
p   5 1.0 
    12451.0879550000      2093.6184468688
     4980.4351820000       918.1890284073
     1992.1740730000      1459.1325391631
      796.8696290000      1489.3345987640
      318.7478520000      1436.7756693929
p   1 1.0 
      127.4991410000       610.6947147288
p   1 1.0 
       50.9996560000       194.2670504300
p   1 1.0 
       20.3998630000        61.7979617804
p   1 1.0 
        8.1599450000        19.6584434383
p   1 1.0 
        3.2639780000         6.2535138558
p   1 1.0 
        1.3055910000         1.9892942277
p   1 1.0 
        0.5222360000         0.6328103822
p   1 1.0 
        0.2088950000         0.2013029523
p   1 1.0 
        0.0835580000         0.0640361382
p   1 1.0 
        0.0334230000         0.0203702742
p   1 1.0 
        0.0133690000         0.0064798319
d   4 1.0 
      837.0672260000      3087.2204500310
      304.3880820000      3007.0563312128
      110.6865750000      2778.8369308977
       40.2496640000      1455.8294057635
d   1 1.0 
       14.6362410000       312.2279657221
d   1 1.0 
        5.3222700000        53.1666948838
d   1 1.0 
        1.9353710000         9.0533119406
d   1 1.0 
        0.7037710000         1.5416116227
d   1 1.0 
        0.2559170000         0.2625086217
d   1 1.0 
        0.0930610000         0.0447006239
d   1 1.0 
        0.0338400000         0.0076115517
d   1 1.0 
        0.0123060000         0.0012962079
f   4 1.0 
       22.0128040000       551.2105701769
        7.3376010000       153.4774832704
        2.4458670000        21.6506471485
        0.8152890000         1.5509273827
f   1 1.0 
        0.2717630000         0.3040383153
f   1 1.0 
        0.0905880000         0.0256690083

  2 0
s   6 1.0 
    27032.3826310000         1.4645050749
     4052.3871392000         1.8244031008
      922.3272271000         2.8547160967
      261.2407098900         4.3654874290
       85.3546413500         5.8940772662
       31.0350352400         6.2963020147
s   1 1.0 
       12.2608607300         4.6698272139
s   1 1.0 
        4.9987076000         2.3826123703
s   1 1.0 
        1.1703108200         0.8019291632
s   1 1.0 
        0.4647474100        -0.4011648063
s   1 1.0 
        0.1850453600         0.2010799377
p   4 1.0 
       63.2749548000         3.0898340730
       14.6270493800         3.3923831935
        4.4501223500         2.9482801524
        1.5275799600         1.7113350234
p   1 1.0 
        0.5293511800         0.6436057935
p   1 1.0 
        0.1747842100         0.1610897223
d   1 1.0 
        2.3140000000        12.3767310624
d   1 1.0 
        0.6450000000         1.3234257612
f   1 1.0 
        1.4280000000        12.7097950062

  3 0
s   6 1.0 
    27032.3826310000         1.4645050749
     4052.3871392000         1.8244031008
      922.3272271000         2.8547160967
      261.2407098900         4.3654874290
       85.3546413500         5.8940772662
       31.0350352400         6.2963020147
s   1 1.0 
       12.2608607300         4.6698272139
s   1 1.0 
        4.9987076000         2.3826123703
s   1 1.0 
        1.1703108200         0.8019291632
s   1 1.0 
        0.4647474100        -0.4011648063
s   1 1.0 
        0.1850453600         0.2010799377
p   4 1.0 
       63.2749548000         3.0898340730
       14.6270493800         3.3923831935
        4.4501223500         2.9482801524
        1.5275799600         1.7113350234
p   1 1.0 
        0.5293511800         0.6436057935
p   1 1.0 
        0.1747842100         0.1610897223
d   1 1.0 
        2.3140000000        12.3767310624
d   1 1.0 
        0.6450000000         1.3234257612
f   1 1.0 
        1.4280000000        12.7097950062

[5D]
[7F]
[9G]
[MO]
 Sym=     1a
 Ene= -1.49223768616340E+03
 Spin= Alpha
 Occup= 1.000000
  1      -0.077686583992
  2      -0.091394227543
  3      -0.169313475017
  4      -0.298568159049
  5      -0.348746682346
  6      -0.178987725196
  7      -0.011506307022
  8      -0.003079032217
  9       0.002235178680
 10      -0.001467559634
 11       0.000992697976
 12      -0.000667622364
 13       0.000441792327
 14      -0.000288921151
 15       0.000180445299
 16      -0.000102556303
 17       0.000042419488
 18      -0.000011450900
 19      -0.000000637635
 20       0.000000190624
 21      -0.000000105305
 22      -0.000000653413
 23      -0.000000525990
 24      -0.000000426971
 25       0.000000307194
 26       0.000000300983
 27       0.000000224486
 28      -0.000000675032
 29      -0.000000432908
 30      -0.000000392224
 31       0.000001154228
 32       0.000000639485
 33       0.000000626097
 34      -0.000001923182
 35      -0.000001016202
 36      -0.000001021394
 37       0.000003176138
 38       0.000001795334
 39       0.000001738611
 40      -0.000003734790
 41      -0.000003056885
 42      -0.000002462702
 43       0.000001061074
 44       0.000003733616
 45       0.000001966840
 46      -0.000000046247
 47      -0.000004641492
 48      -0.000002066560
 49      -0.000000565967
 50       0.000000475302
 51       0.000000041895
 52       0.000000191385
 53      -0.000000072982
 54       0.000000024640
 55       0.000000022633
 56      -0.000000019424
 57      -0.000000002906
 58      -0.000000033267
 59       0.000000009556
 60      -0.000000125559
 61       0.000000100248
 62       0.000000066404
 63       0.000000105937
 64      -0.000000030603
 65       0.000000400122
 66      -0.000000335193
 67      -0.000000184101
 68      -0.000000394068
 69       0.000000094898
 70      -0.000000799313
 71       0.000000664304
 72       0.000000362798
 73       0.000000787987
 74      -0.000000199543
 75       0.000001443650
 76      -0.000001013262
 77      -0.000000731195
 78      -0.000001101381
 79       0.000000551069
 80      -0.000001358872
 81       0.000000117723
 82       0.000001071393
 83      -0.000000465041
 84      -0.000001345954
 85       0.000001847032
 86       0.000000112315
 87      -0.000001387712
 88       0.000000852461
 89       0.000002222189
 90       0.000000018472
 91      -0.000000246168
 92       0.000000103989
 93      -0.000000441987
 94      -0.000000219574
 95      -0.000000031091
 96       0.000000085507
 97      -0.000000015552
 98       0.000000141054
 99       0.000000049800
100       0.000000258253
101       0.000000117292
102       0.000000072088
103      -0.000000172454
104       0.000000037277
105       0.000000435251
106      -0.000000002701
107      -0.000000605534
108       0.000000002233
109      -0.000000390091
110      -0.000000339489
111      -0.000000490421
112      -0.000001057253
113       0.000000490027
114       0.000000944060
115       0.000000084939
116       0.000000586240
117       0.000000194512
118       0.000000736589
119       0.000001840087
120      -0.000000557604
121      -0.000000047030
122       0.000000228587
123      -0.000000471175
124       0.000002178082
125       0.000005547889
126       0.000007940165
127       0.000000063515
128      -0.000000272651
129      -0.000000101697
130      -0.000000862559
131       0.000002680938
132       0.000000929181
133       0.000000123501
134      -0.000001625020
135      -0.000000681973
136       0.000000050676
137       0.000000026621
138      -0.000000066853
139       0.000000090683
140       0.000000072793
141       0.000000290050
142       0.000000127838
143      -0.000000346164
144       0.000000439890
145       0.000000408453
146       0.000000197974
147      -0.000000065925
148       0.000000167622
149       0.000000204227
150       0.000000187477
151       0.000000329919
152      -0.000000164303
153       0.000000008297
154      -0.000000074126
155       0.000000269184
156      -0.000001332979
157       0.000001574425
158       0.000004580861
159       0.000000754622
160      -0.000000059650
161       0.000000198043
162      -0.000001027543
163       0.000000386913
164      -0.000000134470
165       0.000000633636
166      -0.000000681002
167      -0.000000112746
168       0.000000148621
169      -0.000000184029
170       0.000000005882
171      -0.000000318612
172       0.000000006298
173      -0.000001031130
174       0.000001371578
175       0.000000033017
176       0.000002217772
177       0.000000124840
178       0.000000705842
179       0.000000540932
180       0.000000042245
181      -0.000000969265
182      -0.000000120026
183       0.000001215425
184       0.000000242631
 Sym=     1a
 Ene= -2.43309506285788E+02
 Spin= Alpha
 Occup= 1.000000
  1       0.028252603359
  2       0.036413146699
  3       0.068677137893
  4       0.142814737209
  5       0.207397526464
  6       0.102222044750
  7      -0.442923663051
  8      -0.620701986507
  9      -0.116076538067
 10      -0.003488533020
 11       0.002840029240
 12      -0.002034911639
 13       0.001519901743
 14      -0.001044276141
 15       0.000658255856
 16      -0.000375529790
 17       0.000155915846
 18      -0.000042181690
 19      -0.000086868190
 20      -0.000028346822
 21      -0.000038371369
 22      -0.000123886102
 23      -0.000040203171
 24      -0.000054624093
 25      -0.000100683886
 26      -0.000033088331
 27      -0.000044577015
 28      -0.000014046720
 29      -0.000003458004
 30      -0.000005706814
 31       0.000000363269
 32      -0.000000093985
 33       0.000000066464
 34      -0.000006384142
 35      -0.000003226829
 36      -0.000003325787
 37       0.000011091241
 38       0.000006206873
 39       0.000006043656
 40      -0.000013166233
 41      -0.000011119143
 42      -0.000008833319
 43       0.000003952543
 44       0.000014396775
 45       0.000007542788
 46       0.000000241467
 47      -0.000016834642
 48      -0.000007373690
 49      -0.000002247305
 50       0.000001606175
 51       0.000000042020
 52       0.000000756899
 53      -0.000000233430
 54       0.000000121862
 55      -0.000002148569
 56       0.000001204272
 57       0.000000583269
 58       0.000001988891
 59      -0.000001531638
 60      -0.000001523384
 61       0.000001904183
 62       0.000000166516
 63       0.000002971249
 64       0.000000103066
 65       0.000000812602
 66      -0.000001236419
 67      -0.000000059812
 68      -0.000001881090
 69      -0.000000319313
 70      -0.000003064392
 71       0.000002866342
 72       0.000001115417
 73       0.000003774348
 74      -0.000000531001
 75       0.000005454995
 76      -0.000003885443
 77      -0.000002736145
 78      -0.000004264644
 79       0.000002026619
 80      -0.000005424888
 81       0.000000595841
 82       0.000004204354
 83      -0.000001609345
 84      -0.000005258428
 85       0.000006710014
 86       0.000000480030
 87      -0.000005050160
 88       0.000003192566
 89       0.000008159579
 90       0.000000116263
 91      -0.000000917384
 92       0.000000346139
 93      -0.000001620577
 94      -0.000000768586
 95      -0.000000128398
 96       0.000000319056
 97      -0.000000047344
 98       0.000000519559
 99       0.000000172762
100       0.000001442504
101       0.000000637924
102       0.000000399036
103      -0.000000937074
104       0.000000174986
105       0.000002373993
106      -0.000000000140
107      -0.000002752144
108      -0.000000137973
109      -0.000001634039
110      -0.000001151359
111      -0.000001955891
112      -0.000004707089
113       0.000001949330
114       0.000003593165
115       0.000000335468
116       0.000002207048
117       0.000000719778
118       0.000002748839
119       0.000006945206
120      -0.000002096881
121      -0.000000162523
122       0.000000823037
123      -0.000001804988
124       0.000008320538
125       0.000020536795
126       0.000028592243
127       0.000000271463
128      -0.000001160382
129      -0.000000432473
130      -0.000003244626
131       0.000010165945
132       0.000003531171
133       0.000000293953
134      -0.000005568359
135      -0.000002375313
136       0.000000146575
137       0.000000081580
138      -0.000000182714
139       0.000000252794
140       0.000000223207
141       0.000001200863
142       0.000000529396
143      -0.000001484159
144       0.000001892232
145       0.000001658741
146       0.000000667846
147      -0.000000228013
148       0.000000571309
149       0.000000681713
150       0.000000635473
151       0.000001124150
152      -0.000000539918
153       0.000000060126
154      -0.000000478242
155       0.000001314613
156      -0.000005285162
157       0.000005604719
158       0.000016165820
159       0.000002956526
160      -0.000000229632
161       0.000000777709
162      -0.000003687593
163       0.000001516329
164      -0.000000426057
165       0.000002530962
166      -0.000002503280
167      -0.000000354427
168       0.000000638619
169      -0.000000804829
170       0.000000019211
171      -0.000001376936
172       0.000000005175
173      -0.000003893116
174       0.000005151017
175       0.000000102689
176       0.000008372058
177       0.000000422113
178       0.000002658132
179       0.000002034658
180       0.000000160060
181      -0.000003644050
182      -0.000000451452
183       0.000004573989
184       0.000000911198
 Sym=     1a
 Ene= -2.18038572411666E+02
 Spin= Alpha
 Occup= 1.000000
  1       0.000000000387
  2       0.000000000496
  3       0.000000000955
  4       0.000000001931
  5       0.000000002976
  6       0.000000001104
  7      -0.000000006149
  8      -0.000000008901
  9       0.000000000256
 10      -0.000000002545
 11       0.000000004626
 12      -0.000000007183
 13       0.000000010549
 14      -0.000000011648
 15       0.000000004065
 16       0.000000013054
 17      -0.000000005160
 18       0.000000001160
 19       0.091166738709
 20       0.135574112617
 21      -0.306508512364
 22       0.125766596281
 23       0.187027581852
 24      -0.422835486890
 25       0.081399224902
 26       0.121048836401
 27      -0.273669493814
 28       0.004888850440
 29       0.007270213397
 30      -0.016436636610
 31       0.001405224406
 32       0.002089708748
 33      -0.004724451513
 34      -0.000973279038
 35      -0.001447361596
 36       0.003272219830
 37       0.000576345097
 38       0.000857079496
 39      -0.001937696814
 40      -0.000345782161
 41      -0.000514208899
 42       0.001162525235
 43       0.000201870753
 44       0.000300200234
 45      -0.000678688861
 46      -0.000112131268
 47      -0.000166756140
 48       0.000377012255
 49       0.000052836796
 50       0.000078575383
 51      -0.000177648230
 52      -0.000016780441
 53      -0.000024954724
 54       0.000056419071
 55      -0.000021571283
 56      -0.000024168703
 57      -0.000003907239
 58       0.000004125708
 59       0.000015129124
 60       0.000001569559
 61       0.000002364780
 62      -0.000000123203
 63      -0.000000660504
 64      -0.000001247730
 65      -0.000000914256
 66      -0.000002424576
 67       0.000000775480
 68       0.000001007136
 69       0.000000980553
 70      -0.000001174312
 71       0.000000539945
 72      -0.000001459197
 73      -0.000000877664
 74       0.000000373772
 75       0.000002589941
 76      -0.000000125372
 77       0.000002502180
 78       0.000001302833
 79      -0.000001082393
 80      -0.000004503728
 81      -0.000000390793
 82      -0.000003943100
 83      -0.000001906284
 84       0.000002029221
 85       0.000004180703
 86       0.000000492130
 87       0.000003579127
 88       0.000001697756
 89      -0.000001916248
 90       0.000000703477
 91       0.000000039688
 92       0.000000629330
 93       0.000000309332
 94      -0.000000311738
 95      -0.000000280678
 96      -0.000000034739
 97      -0.000000238515
 98      -0.000000112291
 99       0.000000128991
100      -0.000000614055
101       0.000000460526
102       0.000000662196
103       0.000000264374
104      -0.000000621183
105       0.000000288942
106      -0.000000050088
107       0.000002618099
108      -0.000001611501
109      -0.000003641511
110      -0.000000507447
111       0.000002809102
112      -0.000000954909
113       0.000000748482
114      -0.000002519943
115       0.000000941482
116       0.000003900721
117      -0.000000082733
118      -0.000002937477
119       0.000000805889
120      -0.000001271949
121       0.000000000012
122      -0.000000000052
123       0.000000000065
124       0.000000000301
125       0.000000000338
126      -0.000000002673
127       0.000000803208
128       0.000001194122
129      -0.000002700254
130      -0.000002738839
131      -0.000004070467
132       0.000009206751
133       0.000003238088
134       0.000004818536
135      -0.000010889263
136       0.000001394972
137      -0.000001145401
138       0.000002073960
139       0.000001344309
140      -0.000000322209
141      -0.000005619494
142       0.000004618885
143      -0.000008358388
144      -0.000005417793
145       0.000001297338
146      -0.000001039634
147      -0.000000614151
148       0.000002175104
149      -0.000000931247
150      -0.000001594573
151       0.000000181125
152      -0.000001401333
153       0.000000000114
154      -0.000000000609
155       0.000000001256
156      -0.000000003631
157      -0.000000004696
158      -0.000000011224
159       0.000000347189
160       0.000000515111
161      -0.000001164339
162      -0.000003326450
163      -0.000004945171
164       0.000011180426
165       0.000002634859
166       0.000003911754
167      -0.000008842691
168      -0.000000317266
169      -0.000000501085
170       0.000000040117
171       0.000000146615
172       0.000000257765
173      -0.000001822631
174      -0.000002840597
175       0.000000208254
176       0.000000826448
177       0.000001471918
178       0.000002214037
179      -0.000005626659
180      -0.000000798831
181      -0.000004182444
182       0.000000752964
183      -0.000001403682
184      -0.000003049527
 Sym=     1a
 Ene= -2.18038424587425E+02
 Spin= Alpha
 Occup= 1.000000
  1      -0.000004419651
  2      -0.000005653283
  3      -0.000010946023
  4      -0.000021870062
  5      -0.000034337872
  6      -0.000011582428
  7       0.000067176029
  8       0.000102733289
  9      -0.000001574148
 10       0.000035985579
 11      -0.000066741684
 12       0.000103105287
 13      -0.000157972294
 14       0.000194793179
 15      -0.000083766004
 16      -0.000194442915
 17       0.000086037845
 18      -0.000018876975
 19      -0.025519649855
 20      -0.313917564376
 21      -0.146441735255
 22      -0.035205378706
 23      -0.433052718804
 24      -0.202018198821
 25      -0.022786607005
 26      -0.280284362640
 27      -0.130752271877
 28      -0.001363858084
 29      -0.016827659651
 30      -0.007848831515
 31      -0.000399856082
 32      -0.004849696460
 33      -0.002264037062
 34       0.000282261679
 35       0.003373336103
 36       0.001576039458
 37      -0.000175975110
 38      -0.002026472104
 39      -0.000948683260
 40       0.000104641497
 41       0.001269117112
 42       0.000592473210
 43      -0.000043708769
 44      -0.000797761697
 45      -0.000365860481
 46      -0.000009833581
 47       0.000336708022
 48       0.000146010760
 49      -0.000005347386
 50      -0.000150075573
 51      -0.000067973352
 52       0.000001940928
 53       0.000049167680
 54       0.000022325521
 55       0.000001941916
 56      -0.000014854484
 57      -0.000018314139
 58       0.000006972358
 59      -0.000027592624
 60       0.000001127780
 61       0.000000897374
 62       0.000001433123
 63      -0.000001689115
 64       0.000003872278
 65      -0.000003901069
 66      -0.000000236711
 67       0.000001422192
 68       0.000000297756
 69      -0.000005654211
 70       0.000010733741
 71      -0.000002618628
 72      -0.000008595057
 73       0.000001899282
 74       0.000008383275
 75      -0.000022436630
 76       0.000002223938
 77       0.000021150713
 78      -0.000012164322
 79      -0.000019658623
 80       0.000035405532
 81       0.000009477040
 82      -0.000039992500
 83       0.000043446927
 84       0.000043448043
 85       0.000016356502
 86      -0.000014879237
 87      -0.000009989145
 88      -0.000014048497
 89       0.000000800416
 90      -0.000011929460
 91       0.000003104483
 92       0.000010924609
 93      -0.000003793383
 94      -0.000008193787
 95       0.000003609747
 96      -0.000000999566
 97      -0.000003309680
 98       0.000001083631
 99       0.000002399708
100      -0.000004599595
101      -0.000000294927
102      -0.000002324628
103      -0.000000833236
104      -0.000001776165
105      -0.000006764771
106       0.000001635084
107       0.000020906796
108      -0.000004642535
109       0.000015441481
110       0.000021465868
111       0.000017735028
112       0.000031535676
113      -0.000019887076
114      -0.000002216462
115       0.000002792539
116      -0.000003787813
117      -0.000009887623
118      -0.000006725638
119      -0.000004473899
120       0.000008189237
121      -0.000000166322
122       0.000000555385
123       0.000000243221
124      -0.000018957809
125      -0.000030757756
126       0.000077190043
127      -0.000003441852
128       0.000005621582
129       0.000001462535
130       0.000023997667
131      -0.000052477809
132      -0.000016072162
133       0.000024313231
134      -0.000068302714
135      -0.000022978224
136       0.000000402207
137       0.000000055664
138       0.000000733273
139      -0.000001217410
140       0.000001183801
141      -0.000011784388
142      -0.000005219211
143       0.000010091837
144      -0.000012380241
145      -0.000019159010
146      -0.000003458993
147       0.000000655176
148      -0.000002353540
149      -0.000004051346
150      -0.000002776173
151      -0.000004597090
152       0.000003884443
153      -0.000001260293
154       0.000006663075
155      -0.000013552523
156       0.000039950918
157       0.000063682417
158       0.000110646430
159      -0.000008052260
160       0.000000689876
161      -0.000002089681
162       0.000018348919
163       0.000002232367
164       0.000006444820
165      -0.000041711507
166      -0.000000365373
167      -0.000012567005
168      -0.000001325344
169       0.000001383126
170      -0.000001235234
171       0.000004186507
172      -0.000001140627
173       0.000006507531
174      -0.000009555159
175       0.000002048643
176      -0.000018176169
177      -0.000000501161
178      -0.000003839985
179      -0.000006037339
180       0.000000288802
181       0.000005286722
182      -0.000003852317
183      -0.000011422242
184       0.000005338206
 Sym=     1a
 Ene= -2.18037786876873E+02
 Spin= Alpha
 Occup= 1.000000
  1       0.000007999069
  2       0.000010265715
  3       0.000019711963
  4       0.000039958897
  5       0.000061147296
  6       0.000023689527
  7      -0.000125871211
  8      -0.000186045090
  9       0.000002232123
 10      -0.000047463930
 11       0.000086782499
 12      -0.000132570752
 13       0.000184545432
 14      -0.000172871529
 15       0.000035214317
 16       0.000232084068
 17      -0.000077292780
 18       0.000018109301
 19       0.334182070306
 20      -0.060958130163
 21       0.072435003203
 22       0.461007582333
 23      -0.084091666485
 24       0.099925135872
 25       0.298386269265
 26      -0.054427550599
 27       0.064676624816
 28       0.017896454891
 29      -0.003268375227
 30       0.003877395199
 31       0.005187124187
 32      -0.000940895146
 33       0.001126662895
 34      -0.003634535882
 35       0.000655281592
 36      -0.000791197821
 37       0.002228299714
 38      -0.000394854365
 39       0.000488122214
 40      -0.001432677319
 41       0.000252936828
 42      -0.000314246626
 43       0.000898739462
 44      -0.000166962952
 45       0.000193462614
 46      -0.000265094551
 47       0.000078134249
 48      -0.000044294089
 49       0.000129892392
 50      -0.000030302923
 51       0.000025233312
 52      -0.000043325369
 53       0.000009822763
 54      -0.000008542361
 55      -0.000014119213
 56       0.000020925737
 57      -0.000000017313
 58       0.000033506545
 59       0.000004157034
 60      -0.000000622032
 61       0.000002077337
 62      -0.000000074750
 63       0.000002918375
 64       0.000001617075
 65       0.000003286871
 66      -0.000007792437
 67       0.000000317059
 68      -0.000011621361
 69      -0.000004512365
 70      -0.000011390198
 71       0.000023690260
 72      -0.000001309619
 73       0.000036724605
 74       0.000011255734
 75       0.000018901157
 76      -0.000043837974
 77       0.000004320664
 78      -0.000069173278
 79      -0.000023109393
 80      -0.000012337056
 81       0.000048281288
 82      -0.000010925793
 83       0.000079217119
 84       0.000035122963
 85      -0.000028841039
 86       0.000042118310
 87       0.000001335322
 88       0.000065811642
 89       0.000008566760
 90       0.000010486208
 91      -0.000020714350
 92       0.000001597178
 93      -0.000033084029
 94      -0.000008708611
 95      -0.000003291636
 96       0.000006501357
 97      -0.000000471695
 98       0.000010342840
 99       0.000002751383
100       0.000004855841
101       0.000005179814
102      -0.000000972809
103      -0.000009139121
104      -0.000002648603
105       0.000007448162
106       0.000002667872
107      -0.000004557100
108      -0.000012540477
109       0.000007382026
110       0.000024534693
111       0.000012755013
112      -0.000003570897
113      -0.000010949159
114      -0.000007193526
115      -0.000002354722
116      -0.000002969824
117       0.000005805169
118      -0.000001635783
119      -0.000013944645
120      -0.000002038527
121       0.000000218323
122      -0.000001255512
123       0.000003064328
124      -0.000017367771
125      -0.000034354325
126       0.000011011168
127       0.000001099443
128       0.000003744243
129       0.000001983036
130       0.000002709766
131      -0.000029335536
132      -0.000012168712
133       0.000013280557
134      -0.000017938200
135      -0.000003983607
136      -0.000001248511
137      -0.000000053466
138      -0.000000627355
139       0.000001625794
140      -0.000002471039
141      -0.000000910483
142      -0.000001626315
143       0.000009325430
144      -0.000014253553
145       0.000002399018
146      -0.000001090237
147       0.000001198361
148      -0.000001740085
149      -0.000000425066
150      -0.000001484539
151      -0.000003196090
152      -0.000000858062
153       0.000002705079
154      -0.000014597066
155       0.000030373617
156      -0.000086537192
157      -0.000093075597
158      -0.000287709703
159       0.000021760371
160       0.000002657919
161       0.000007647083
162      -0.000023137939
163      -0.000003575941
164      -0.000008463103
165       0.000124060295
166       0.000008571333
167       0.000040686600
168       0.000005018379
169      -0.000008051576
170      -0.000001134600
171      -0.000011035096
172      -0.000002992212
173      -0.000022735841
174       0.000035141036
175       0.000004004709
176       0.000050023678
177       0.000011118908
178       0.000018369312
179       0.000012691058
180       0.000001305666
181      -0.000025513336
182      -0.000005338485
183       0.000029449638
184       0.000009673051
 Sym=     1a
 Ene= -5.43794653591060E+01
 Spin= Alpha
 Occup= 1.000000
  1      -0.012935839263
  2      -0.016860376562
  3      -0.032140883451
  4      -0.067814482439
  5      -0.104275502886
  6      -0.049683733559
  7       0.320748898100
  8       0.691835397480
  9      -0.296738187399
 10      -0.955043578912
 11      -0.098928485426
 12      -0.025943279569
 13       0.018048606204
 14      -0.012488077082
 15       0.008132174661
 16      -0.004686307095
 17       0.001954232588
 18      -0.000529977614
 19       0.000397553911
 20       0.000131435732
 21       0.000176362025
 22       0.000613695359
 23       0.000202980284
 24       0.000272284187
 25       0.000136526620
 26       0.000045787089
 27       0.000060852904
 28      -0.001547745198
 29      -0.000521376248
 30      -0.000690886466
 31      -0.001060406325
 32      -0.000333855705
 33      -0.000463016987
 34       0.000061198401
 35       0.000007693051
 36       0.000021602859
 37       0.000046725129
 38       0.000049099533
 39       0.000035611525
 40      -0.000116552788
 41      -0.000130810128
 42      -0.000092516607
 43       0.000015205121
 44       0.000173289244
 45       0.000081163070
 46       0.000008329362
 47      -0.000207993771
 48      -0.000089512861
 49      -0.000030778935
 50       0.000019408930
 51      -0.000000569593
 52       0.000010454156
 53      -0.000002699863
 54       0.000001914983