[Molden Format]
[Title]
 Molden file created by orca_2mkl for BaseName=/home/nikolayandreadi_2125/_scratch/F2_cc/Er_F2_cc

[Atoms] AU
Er   1  68         -0.2726307893        -0.3483710128        -1.5104845550 
F    2   9         -1.8682323889         2.8725745859        -0.6259075312 
F    3   9          3.3158022917        -0.8625919500        -0.7415946754 
[GTO]
  1 0
s   6 1.0 
  1280982.1879360001      2520.6148364459
   569325.4168600000      -681.3957563930
   253033.5186050000      1460.6740705580
   112459.3416020000       312.1436294738
    49981.9296010000       863.9077130156
    22214.1909340000       629.2071075609
s   1 1.0 
     9872.9737480000       705.9047087998
s   1 1.0 
     4387.9883330000       384.2458541670
s   1 1.0 
     1950.2170370000       209.1569507843
s   1 1.0 
      866.7631270000       113.8506234070
s   1 1.0 
      385.2280570000        61.9724298993
s   1 1.0 
      171.2124700000        33.7335181159
s   1 1.0 
       76.0944310000        18.3622014494
s   1 1.0 
       33.8197470000         9.9951164432
s   1 1.0 
       15.0309990000         5.4406523584
s   1 1.0 
        6.6804440000         2.9615160324
s   1 1.0 
        2.9690860000         1.6120450527
s   1 1.0 
        1.3195940000         0.8774862934
s   1 1.0 
        0.5864860000         0.4776429032
s   1 1.0 
        0.2606610000         0.2599962805
s   1 1.0 
        0.1158490000         0.1415237440
s   1 1.0 
        0.0514880000         0.0770352700
s   1 1.0 
        0.0228840000         0.0419333005
p   5 1.0 
    17602.8164910000      4022.4508342837
     7041.1265960000      1545.5382950479
     2816.4506390000      2442.5227289582
     1126.5802550000      2329.4326719729
      450.6321020000      2190.8967379529
p   1 1.0 
      180.2528410000       941.4401934414
p   1 1.0 
       72.1011360000       299.4799294147
p   1 1.0 
       28.8404550000        95.2670511641
p   1 1.0 
       11.5361820000        30.3052388827
p   1 1.0 
        4.6144730000         9.6403482870
p   1 1.0 
        1.8457890000         3.0666743077
p   1 1.0 
        0.7383160000         0.9755351853
p   1 1.0 
        0.2953260000         0.3103253057
p   1 1.0 
        0.1181310000         0.0987176796
p   1 1.0 
        0.0472520000         0.0314025801
p   1 1.0 
        0.0189010000         0.0099895532
d   4 1.0 
     1280.6903600000      6403.7653961462
      465.7055860000      6055.6208623721
      169.3474860000      5668.4317575873
       61.5809040000      3092.7344183634
d   1 1.0 
       22.3930560000       657.1559952900
d   1 1.0 
        8.1429290000       111.9015797720
d   1 1.0 
        2.9610650000        19.0547818108
d   1 1.0 
        1.0767510000         3.2446796886
d   1 1.0 
        0.3915460000         0.5525097787
d   1 1.0 
        0.1423800000         0.0940818424
d   1 1.0 
        0.0517750000         0.0160206551
d   1 1.0 
        0.0188270000         0.0027279540
f   4 1.0 
       37.3757410000      2115.7106758334
       12.4585800000       583.6684471563
        4.1528600000        72.9133455825
        1.3842870000         4.2858523755
f   1 1.0 
        0.4614290000         1.0005437237
f   1 1.0 
        0.1538100000         0.0844725037

  2 0
s   6 1.0 
    35479.1004410000         1.9229128581
     5318.4728983000         2.2734773358
     1210.4810975000         3.4747482552
      342.8551814000         5.2879612972
      112.0194318100         7.1666332516
       40.7147402500         7.7556346254
s   1 1.0 
       16.0396781100         5.7122450312
s   1 1.0 
        6.5038186700         2.9025947842
s   1 1.0 
        1.5440477500         0.9872011154
s   1 1.0 
        0.6122345300        -0.4932856223
s   1 1.0 
        0.2402798000         0.2445952611
p   4 1.0 
       80.2339004800         4.2755032106
       18.5940107400         4.7314752302
        5.6867902700         4.0864798013
        1.9511006300         2.2989954518
p   1 1.0 
        0.6697021100         0.8635593126
p   1 1.0 
        0.2165130000         0.2105208234
d   1 1.0 
        3.1070000000        20.7284714039
d   1 1.0 
        0.8550000000         2.1672588463
f   1 1.0 
        1.9170000000        24.6547062912

  3 0
s   6 1.0 
    35479.1004410000         1.9229128581
     5318.4728983000         2.2734773358
     1210.4810975000         3.4747482552
      342.8551814000         5.2879612972
      112.0194318100         7.1666332516
       40.7147402500         7.7556346254
s   1 1.0 
       16.0396781100         5.7122450312
s   1 1.0 
        6.5038186700         2.9025947842
s   1 1.0 
        1.5440477500         0.9872011154
s   1 1.0 
        0.6122345300        -0.4932856223
s   1 1.0 
        0.2402798000         0.2445952611
p   4 1.0 
       80.2339004800         4.2755032106
       18.5940107400         4.7314752302
        5.6867902700         4.0864798013
        1.9511006300         2.2989954518
p   1 1.0 
        0.6697021100         0.8635593126
p   1 1.0 
        0.2165130000         0.2105208234
d   1 1.0 
        3.1070000000        20.7284714039
d   1 1.0 
        0.8550000000         2.1672588463
f   1 1.0 
        1.9170000000        24.6547062912

[5D]
[7F]
[9G]
[MO]
 Sym=     1a
 Ene= -2.11989856731031E+03
 Spin= Alpha
 Occup= 1.000000
  1      -0.093919158283
  2      -0.102779631858
  3      -0.177281478612
  4      -0.300655171540
  5      -0.335098440862
  6      -0.167595732765
  7      -0.009242599873
  8      -0.003355968794
  9       0.002442553502
 10      -0.001616507538
 11       0.001085821288
 12      -0.000727331335
 13       0.000481810810
 14      -0.000319735425
 15       0.000214114164
 16      -0.000136062478
 17       0.000050249827
 18      -0.000012855752
 19       0.000000037308
 20       0.000000052196
 21       0.000000032738
 22      -0.000000103077
 23      -0.000000142246
 24      -0.000000086355
 25       0.000000105091
 26       0.000000143738
 27       0.000000087780
 28      -0.000000212383
 29      -0.000000288925
 30      -0.000000176526
 31       0.000000376448
 32       0.000000511341
 33       0.000000312418
 34      -0.000000647054
 35      -0.000000878740
 36      -0.000000536870
 37       0.000001156570
 38       0.000001572582
 39       0.000000960335
 40      -0.000002006812
 41      -0.000002734452
 42      -0.000001668653
 43       0.000003198999
 44       0.000004356589
 45       0.000002658998
 46      -0.000006998035
 47      -0.000009575076
 48      -0.000005835070
 49       0.000001259838
 50       0.000001726777
 51       0.000001051703
 52      -0.000000221327
 53      -0.000000305200
 54      -0.000000185517
 55       0.000000018683
 56      -0.000000000329
 57      -0.000000005370
 58      -0.000000009349
 59       0.000000025404
 60      -0.000000158095
 61       0.000000030951
 62       0.000000059009
 63       0.000000056356
 64      -0.000000164085
 65       0.000000371107
 66      -0.000000073918
 67      -0.000000136824
 68      -0.000000131157
 69       0.000000384556
 70      -0.000000768414
 71       0.000000149592
 72       0.000000276866
 73       0.000000273946
 74      -0.000000806062
 75       0.000001506928
 76      -0.000000289094
 77      -0.000000537131
 78      -0.000000539348
 79       0.000001591250
 80      -0.000002472910
 81       0.000000458332
 82       0.000000859912
 83       0.000000897679
 84      -0.000002650499
 85       0.000006774087
 86      -0.000001231766
 87      -0.000002325598
 88      -0.000002475065
 89       0.000007317120
 90      -0.000000622895
 91       0.000000152357
 92       0.000000265270
 93       0.000000196968
 94      -0.000000578174
 95       0.000000045999
 96      -0.000000016366
 97      -0.000000026753
 98      -0.000000009882
 99       0.000000029987
100       0.000000124401
101       0.000000056358
102       0.000000064347
103      -0.000000021648
104       0.000000094667
105       0.000000284357
106      -0.000000091160
107      -0.000000657377
108      -0.000000299344
109      -0.000000342675
110       0.000000116865
111      -0.000000510897
112      -0.000001519027
113       0.000000486983
114       0.000002084485
115       0.000000966391
116       0.000001099861
117      -0.000000394512
118       0.000001688980
119       0.000004927302
120      -0.000001580582
121      -0.000000172525
122       0.000000792546
123      -0.000001497428
124       0.000004279829
125       0.000008317729
126       0.000016553291
127       0.000000320592
128      -0.000000648910
129      -0.000000178448
130      -0.000001354796
131       0.000002767114
132       0.000000764301
133       0.000002509697
134      -0.000005969520
135      -0.000001761588
136      -0.000000153596
137      -0.000000031186
138       0.000000113789
139      -0.000000110196
140      -0.000000205283
141       0.000000830890
142       0.000000262209
143      -0.000000660327
144       0.000000779791
145       0.000001211501
146      -0.000000109856
147       0.000000053747
148      -0.000000116392
149      -0.000000084230
150      -0.000000096789
151      -0.000000213371
152       0.000000044945
153      -0.000000172899
154       0.000000794073
155      -0.000001499565
156       0.000004274358
157       0.000008287081
158       0.000016489915
159      -0.000000724404
160       0.000000103025
161      -0.000000155538
162       0.000003062907
163      -0.000000424528
164       0.000000662184
165      -0.000006497135
166       0.000000529978
167      -0.000001556523
168      -0.000000161052
169       0.000000103097
170       0.000000010261
171       0.000000218679
172      -0.000000101473
173       0.000000868006
174      -0.000000616310
175       0.000000023003
176      -0.000001373229
177       0.000000518190
178      -0.000000101163
179      -0.000000144467
180       0.000000017378
181       0.000000112477
182      -0.000000024567
183      -0.000000208949
184       0.000000090743
 Sym=     1a
 Ene= -3.61526071496813E+02
 Spin= Alpha
 Occup= 1.000000
  1      -0.035700064932
  2      -0.043194971371
  3      -0.075349439201
  4      -0.150793953663
  5      -0.203035065734
  6      -0.070365019482
  7       0.485049487625
  8       0.589830665052
  9       0.087200058419
 10       0.004647302401
 11      -0.004096573552
 12       0.002889756215
 13      -0.002048329563
 14       0.001403185060
 15      -0.000947198631
 16       0.000605066153
 17      -0.000223879661
 18       0.000057345956
 19       0.000002561263
 20       0.000003548670
 21       0.000002085425
 22       0.000004179831
 23       0.000005771287
 24       0.000003412367
 25       0.000003260980
 26       0.000004501221
 27       0.000002662380
 28      -0.000000165303
 29      -0.000000225281
 30      -0.000000155274
 31      -0.000000773731
 32      -0.000001044677
 33      -0.000000637679
 34       0.000002532504
 35       0.000003437906
 36       0.000002100079
 37      -0.000004972838
 38      -0.000006762195
 39      -0.000004128837
 40       0.000008813682
 41       0.000012013273
 42       0.000007330200
 43      -0.000014297705
 44      -0.000019478839
 45      -0.000011887132
 46       0.000031194126
 47       0.000042685690
 48       0.000026011803
 49      -0.000005605581
 50      -0.000007684144
 51      -0.000004679871
 52       0.000000984745
 53       0.000001358201
 54       0.000000825528
 55       0.000000464609
 56      -0.000000306890
 57      -0.000000032717
 58       0.000000009894
 59       0.000000275467
 60      -0.000000317263
 61       0.000000015832
 62       0.000000127228
 63       0.000000153357
 64      -0.000000393860
 65      -0.000000906507
 66       0.000000158816
 67       0.000000282120
 68       0.000000334959
 69      -0.000001008038
 70       0.000002902557
 71      -0.000000550148
 72      -0.000001015643
 73      -0.000001044614
 74       0.000003087893
 75      -0.000006610647
 76       0.000001276458
 77       0.000002362669
 78       0.000002357617
 79      -0.000006963439
 80       0.000011057575
 81      -0.000002053604
 82      -0.000003849214
 83      -0.000004007990
 84       0.000011842332
 85      -0.000030181222
 86       0.000005483535
 87       0.000010355022
 88       0.000011029311
 89      -0.000032611797
 90       0.000002759708
 91      -0.000000676894
 92      -0.000001177175
 93      -0.000000871045
 94       0.000002557379
 95      -0.000000200016
 96       0.000000072098
 97       0.000000117412
 98       0.000000042120
 99      -0.000000128220
100      -0.000000629282
101      -0.000000281167
102      -0.000000320853
103       0.000000102535
104      -0.000000457560
105      -0.000001405143
106       0.000000449860
107       0.000003050870
108       0.000001385402
109       0.000001586614
110      -0.000000536604
111       0.000002353062
112       0.000007021503
113      -0.000002250713
114      -0.000009340507
115      -0.000004328748
116      -0.000004927123
117       0.000001765463
118      -0.000007561434
119      -0.000022068263
120       0.000007078971
121       0.000000653266
122      -0.000003255025
123       0.000006447480
124      -0.000018958804
125      -0.000036822518
126      -0.000073648778
127      -0.000001460677
128       0.000002960215
129       0.000000814552
130       0.000006032341
131      -0.000012321796
132      -0.000003403560
133      -0.000011149409
134       0.000026541604
135       0.000007834964
136       0.000000714607
137       0.000000153498
138      -0.000000533893
139       0.000000529851
140       0.000000963822
141      -0.000003767601
142      -0.000001196541
143       0.000002998197
144      -0.000003551198
145      -0.000005501377
146       0.000000509471
147      -0.000000251970
148       0.000000543245
149       0.000000391275
150       0.000000454538
151       0.000000997602
152      -0.000000208012
153       0.000000654471
154      -0.000003260430
155       0.000006454901
156      -0.000018930583
157      -0.000036682191
158      -0.000073364365
159       0.000003302695
160      -0.000000468070
161       0.000000709798
162      -0.000013636273
163       0.000001889524
164      -0.000002948295
165       0.000028884513
166      -0.000002347579
167       0.000006923348
168       0.000000749074
169      -0.000000485390
170      -0.000000040818
171      -0.000001034927
172       0.000000468678
173      -0.000003935168
174       0.000002799272
175      -0.000000110454
176       0.000006241496
177      -0.000002346392
178       0.000000468008
179       0.000000673235
180      -0.000000081936
181      -0.000000524056
182       0.000000117543
183       0.000000973733
184      -0.000000425174
 Sym=     1a
 Ene= -3.20597281649178E+02
 Spin= Alpha
 Occup= 1.000000
  1      -0.000000143727
  2      -0.000000165396
  3      -0.000000337167
  4      -0.000000513062
  5      -0.000001103435
  6       0.000000483216
  7       0.000000961108
  8       0.000003486645
  9      -0.000002581272
 10       0.000007010234
 11      -0.000012510616
 12       0.000020274564
 13      -0.000032557941
 14       0.000046018891
 15      -0.000045997017
 16       0.000025529950
 17       0.000002297450
 18      -0.000001182159
 19       0.243740747156
 20      -0.183712272482
 21      -0.191079076150
 22       0.324628901592
 23      -0.244678878667
 24      -0.254493007918
 25       0.203625787806
 26      -0.153476530907
 27      -0.159629620257
 28       0.009623336439
 29      -0.007252536492
 30      -0.007547197013
 31       0.003859205994
 32      -0.002910237096
 33      -0.003017559916
 34      -0.002649509597
 35       0.001999800915
 36       0.002060421469
 37       0.001613030448
 38      -0.001221050336
 39      -0.001233461831
 40      -0.001013802570
 41       0.000773500863
 42       0.000740500520
 43       0.000643753280
 44      -0.000497321840
 45      -0.000435458982
 46      -0.000384143262
 47       0.000299728229
 48       0.000243153125
 49       0.000147443117
 50      -0.000112070246
 51      -0.000111409234
 52      -0.000045229890
 53       0.000034178531
 54       0.000035332847
 55      -0.000000556612
 56      -0.000000091210
 57      -0.000001469842
 58       0.000001511762
 59       0.000000607123
 60       0.000000395986
 61       0.000000740634
 62      -0.000000160941
 63       0.000001247971
 64       0.000000645040
 65      -0.000000547019
 66      -0.000002536165
 67       0.000002664535
 68      -0.000006621253
 69      -0.000003098951
 70       0.000001423574
 71       0.000006313546
 72      -0.000006455180
 73       0.000016318958
 74       0.000007539893
 75      -0.000003049435
 76      -0.000013372421
 77       0.000013630299
 78      -0.000034533651
 79      -0.000015922511
 80       0.000004827718
 81       0.000020481139
 82      -0.000020737672
 83       0.000052684728
 84       0.000024457496
 85      -0.000003933488
 86      -0.000016509987
 87       0.000016679489
 88      -0.000042344276
 89      -0.000019942858
 90       0.000000455476
 91      -0.000001565325
 92       0.000003090697
 93      -0.000005778692
 94      -0.000002368224
 95      -0.000000039409
 96       0.000000851826
 97      -0.000001290991
 98       0.000002693176
 99       0.000001151052
100      -0.000000792133
101       0.000002725429
102      -0.000002093873
103      -0.000002416788
104      -0.000001407822
105      -0.000001225691
106      -0.000000721529
107       0.000004597657
108      -0.000014902303
109       0.000011518416
110       0.000013398916
111       0.000008250863
112       0.000006687919
113       0.000003690900
114      -0.000004565351
115       0.000012646754
116      -0.000009316232
117      -0.000011310480
118      -0.000007661745
119      -0.000005353121
120      -0.000002697002
121       0.000001771752
122      -0.000009036363
123       0.000018125463
124      -0.000052886398
125      -0.000078644536
126      -0.000090513739
127      -0.000006029249
128       0.000013493391
129       0.000002864545
130       0.000024604872
131      -0.000052447754
132      -0.000012435280
133      -0.000009268242
134       0.000022933420
135       0.000002030294
136       0.000003871291
137       0.000000927692
138      -0.000002311255
139       0.000005245222
140       0.000005124748
141      -0.000018105979
142      -0.000005584686
143       0.000012635273
144      -0.000023604005
145      -0.000025505679
146       0.000001102342
147      -0.000001217754
148       0.000003026288
149       0.000001345082
150       0.000000772079
151       0.000003896869
152      -0.000002226605
153      -0.000001241423
154       0.000006332047
155      -0.000012706014
156       0.000037119552
157       0.000055556709
158       0.000063217332
159      -0.000009954766
160       0.000000822160
161      -0.000003393817
162       0.000039631718
163      -0.000004397980
164       0.000011331897
165      -0.000015705773
166       0.000000910480
167      -0.000008735266
168      -0.000001806318
169       0.000003858024
170      -0.000000442364
171       0.000004689891
172      -0.000000187783
173       0.000010178579
174      -0.000015471301
175       0.000001858257
176      -0.000022871001
177       0.000002957543
178      -0.000002411290
179      -0.000000277313
180      -0.000000261334
181       0.000003444776
182      -0.000000437737
183      -0.000002605957
184      -0.000000470567
 Sym=     1a
 Ene= -3.20597241635403E+02
 Spin= Alpha
 Occup= 1.000000
  1      -0.000000564529
  2      -0.000000649542
  3      -0.000001324964
  4      -0.000002014022
  5      -0.000004338311
  6       0.000001908939
  7       0.000003766226
  8       0.000013762123
  9      -0.000010300808
 10       0.000027703439
 11      -0.000049379453
 12       0.000079931585
 13      -0.000127997079
 14       0.000180390009
 15      -0.000181316925
 16       0.000102736298
 17       0.000008969355
 18      -0.000004741427
 19      -0.264485408648
 20      -0.185772832151
 21      -0.158767111485
 22      -0.352259204725
 23      -0.247425529489
 24      -0.211457039630
 25      -0.220954273246
 26      -0.155195685861
 27      -0.132635461033
 28      -0.010443780857
 29      -0.007336845641
 30      -0.006269892068
 31      -0.004182983630
 32      -0.002934614016
 33      -0.002509262690
 34       0.002864505049
 35       0.002004358733
 36       0.001715785717
 37      -0.001730709682
 38      -0.001201383424
 39      -0.001031953238
 40       0.001065947763
 41       0.000723938472
 42       0.000627744190
 43      -0.000655253411
 44      -0.000428781888
 45      -0.000377911231
 46       0.000381611633
 47       0.000241754835
 48       0.000216137734
 49      -0.000157904424
 50      -0.000109169583
 51      -0.000093895318
 52       0.000049131301
 53       0.000034503419
 54       0.000029479041
 55       0.000000956937
 56      -0.000001372348
 57      -0.000001495592
 58      -0.000000113241
 59      -0.000001516645
 60       0.000000590093
 61       0.000000063367
 62       0.000000410491
 63      -0.000000910674
 64       0.000001308170
 65      -0.000003254922
 66       0.000001730082
 67       0.000000635521
 68       0.000003339538
 69      -0.000002281755
 70       0.000007877700
 71      -0.000004198171
 72      -0.000001478152
 73      -0.000008181079
 74       0.000005511988
 75      -0.000016610753
 76       0.000008868369
 77       0.000003121022
 78       0.000017265172
 79      -0.000011580370
 80       0.000025651181
 81      -0.000013429002
 82      -0.000004668989
 83      -0.000026559386
 84       0.000018356551
 85      -0.000021846133
 86       0.000010892428
 87       0.000003807196
 88       0.000022208283
 89      -0.000016543110
 90      -0.000002064502
 91       0.000002273633
 92       0.000001528359
 93       0.000001903253
 94       0.000000931874
 95       0.000001099128
 96      -0.000000921626
 97      -0.000000532729
 98      -0.000001072549
 99       0.000000087704
100      -0.000001893660
101      -0.000001778035
102      -0.000000290224
103       0.000001107522
104      -0.000000907722
105      -0.000003870749
106       0.000001619332
107       0.000010478908
108       0.000009845855
109       0.000001655711
110      -0.000006265520
111       0.000005266734
112       0.000022192194
113      -0.000009071396
114      -0.000009627906
115      -0.000008614565
116      -0.000001718643
117       0.000005518321
118      -0.000004821435
119      -0.000020198861
120       0.000007950548
121       0.000000559855
122      -0.000002847477
123       0.000005673140
124      -0.000016127417
125      -0.000023050852
126      -0.000029197767
127      -0.000003606281
128       0.000003591573
129       0.000000429052
130       0.000011318792
131      -0.000014370670
132      -0.000002665575
133      -0.000009216565
134       0.000004950867
135      -0.000000764444
136       0.000001715327
137       0.000000534025
138       0.000000119586
139      -0.000000490511
140       0.000003560575
141      -0.000007047672
142      -0.000002404665
143       0.000001179134
144      -0.000000603930
145      -0.000013725300
146      -0.000000045548
147      -0.000001373969
148       0.000001341706
149      -0.000001248267
150       0.000000641571
151       0.000002415862
152       0.000002995675
153       0.000001572979
154      -0.000008012045
155       0.000016022877
156      -0.000046208108
157      -0.000067827926
158      -0.000080875683
159       0.000012837121
160      -0.000003065038
161       0.000002190193
162      -0.000049688889
163       0.000009992866
164      -0.000009336648
165       0.000021364789
166      -0.000008032336
167       0.000002263935
168       0.000003685629
169      -0.000001842951
170       0.000000617523
171      -0.000005786002
172       0.000003557522
173      -0.000016855873
174       0.000010122718
175      -0.000002521415
176       0.000027907163
177      -0.000013834951
178       0.000000890211
179       0.000002948953
180      -0.000000929176
181      -0.000000808253
182       0.000001109677
183       0.000002642991
184      -0.000003853687
 Sym=     1a
 Ene= -3.20597165117972E+02
 Spin= Alpha
 Occup= 1.000000
  1       0.000000097659
  2       0.000000112861
  3       0.000000227336
  4       0.000000353858
  5       0.000000734889
  6      -0.000000288357
  7      -0.000000709645
  8      -0.000002323394
  9       0.000001620445
 10      -0.000004378936
 11       0.000007822192
 12      -0.000012670120
 13       0.000020334785
 14      -0.000028727817
 15       0.000028744677
 16      -0.000016018163
 17      -0.000001432455
 18       0.000000741042
 19      -0.017578785696
 20       0.247808948147
 21      -0.260676386939
 22      -0.023411208409
 23       0.330048941734
 24      -0.347188338063
 25      -0.014686494380
 26       0.207022827129
 27      -0.217771892670
 28      -0.000692161462
 29       0.009786113717
 30      -0.010296800281
 31      -0.000283056006
 32       0.003917326463
 33      -0.004114721024
 34       0.000201059729
 35      -0.002680231153
 36       0.002806993156
 37      -0.000134952975
 38       0.001614741258
 39      -0.001675400539
 40       0.000105674039
 41      -0.000986704597
 42       0.000997267475
 43      -0.000087978053
 44       0.000598387086
 45      -0.000577418309
 46       0.000062502852
 47      -0.000343568531
 48       0.000317711645
 49      -0.000013174224
 50       0.000146569582
 51      -0.000150801542
 52       0.000003348161
 53      -0.000045899606
 54       0.000048115452
 55      -0.000001665435
 56      -0.000000940911
 57      -0.000000602842
 58      -0.000001141891
 59       0.000000796878
 60       0.000000451558
 61      -0.000000025255
 62       0.000000546460
 63      -0.000000483330
 64      -0.000000734425
 65       0.000000789622
 66       0.000001465771
 67      -0.000001078051
 68       0.000003367327
 69       0.000001422503
 70      -0.000001684549
 71      -0.000003480743
 72       0.000002814190
 73      -0.000008234732
 74      -0.000003613356
 75       0.000003486412
 76       0.000007323782
 77      -0.000006005644
 78       0.000017406741
 79       0.000007676726
 80      -0.000005219677
 81      -0.000011112922
 82       0.000009272928
 83      -0.000026507638
 84      -0.000011922680
 85       0.000004356809
 86       0.000009013717
 87      -0.000007396644
 88       0.000021296132
 89       0.000009726821
 90       0.000002095028
 91       0.000001945993
 92      -0.000000010098
 93       0.000003341912
 94      -0.000000050137
 95      -0.000000697552
 96      -0.000000774293
 97       0.000000186610
 98      -0.000001478744
 99      -0.000000217550
100       0.000000026185
101      -0.000001153352
102       0.000001370341
103       0.000001338634
104       0.000000308977
105       0.000000961561
106       0.000000289582
107      -0.000000204038
108       0.000006396229
109      -0.000007530350
110      -0.000007561245
111      -0.000001837154
112      -0.000005376981
113      -0.000001267986
114      -0.000000879023
115      -0.000004898594
116       0.000007068360
117       0.000006926601
118       0.000000443224
119       0.000005213467
120       0.000000642550
121      -0.000000919963
122       0.000004691806
123      -0.000009409914
124       0.000027444231
125       0.000040784711
126       0.000047020168
127       0.000003734373
128      -0.000006154514
129      -0.000003504577
130      -0.000014153122
131       0.000025256590
132       0.000011088673
133       0.000007625499
134      -0.000007895053
135      -0.000010649414
136      -0.000000792678
137      -0.000002041014
138       0.000003523571
139      -0.000001208463
140      -0.000002881118
141       0.000005732941
142       0.000007579207
143      -0.000013538794
144       0.000007691144
145       0.000013903924
146      -0.000002513407
147      -0.000000284511
148       0.000001048070
149      -0.000001865351
150      -0.000003169212
151      -0.000001395461
152      -0.000000851630
153       0.000000587348
154      -0.000002996173
155       0.000006013775
156      -0.000017586370
157      -0.000026360341
158      -0.000029887526
159       0.000005254061
160       0.000000496964
161      -0.000000349525
162      -0.000020024822
163       0.000000062263
164      -0.000000899605
165       0.000010008778
166       0.000003704792
167      -0.000005206346
168       0.000001873944
169       0.000000861751
170      -0.000000510310
171      -0.000003218440
172      -0.000001087074
173      -0.000007880458
174      -0.000000719080
175       0.000001271441
176       0.000013830454
177       0.000002129191
178      -0.000000934869
179       0.000002518205
180       0.000000179968
181       0.000001032516
182      -0.000001285615
183       0.000002815972
184       0.000001657725
 Sym=     1a
 Ene= -8.35017057874364E+01
 Spin= Alpha
 Occup= 1.000000
  1       0.016816896123
  2       0.020634859557
  3       0.036297001396
  4       0.073980284840
  5       0.104952989951
  6       0.030994064158
  7      -0.378704538482
  8      -0.690371170091
  9       0.475592212853
 10       0.892233250567
 11       0.029749622675
 12       0.038004580780
 13      -0.025681737658
 14       0.017583887766
 15      -0.012044628530
 16       0.007720806986
 17      -0.002868227135
 18       0.000736181761
 19      -0.000002893614
 20      -0.000004295954
 21      -0.000001877616
 22      -0.000004221569
 23      -0.000006289811
 24      -0.000002740261
 25      -0.000003362241
 26      -0.000004585513
 27      -0.000002681434
 28       0.000020894978
 29       0.000029744661
 30       0.000015475325
 31      -0.000011832205
 32      -0.000015272800
 33      -0.000011277262
 34       0.000032688052
 35       0.000044394349
 36       0.000027288676
 37      -0.000060297500
 38      -0.000082032176
 39      -0.000050201291
 40       0.000111404795
 41       0.000151945755
 42       0.000092755652
 43      -0.000180659414
 44      -0.000246231074
 45      -0.000150283422
 46       0.000396614823
 47       0.000542774675
 48       0.000330769039
 49      -0.000071710922
 50      -0.000098304729
 51      -0.000059878118
 52       0.000012606781
 53       0.000017389647
 54       0.000010571922