[Molden Format]
[Title]
 Molden file created by orca_2mkl for BaseName=/home/nikolayandreadi_2125/_scratch/F1_cc/Nd_F1_cc

[Atoms] AU
Nd   1  60          0.0181394812        -0.5791103532        -1.5256779531 
F    2   9         -1.4804227917         2.7344393850        -0.5766518195 
[GTO]
  1 0
s   6 1.0 
   994735.7959840000      1863.9135210443
   442104.7982150000      -485.8456998776
   196491.0214290000      1100.1532089676
    87329.3428570000       270.9095245490
    38813.0412700000       691.0933671839
    17250.2405640000       543.4710696949
s   1 1.0 
     7666.7735840000       583.9418085366
s   1 1.0 
     3407.4549260000       317.8576600717
s   1 1.0 
     1514.4244120000       173.0197951516
s   1 1.0 
      673.0775160000        94.1800474027
s   1 1.0 
      299.1455630000        51.2651245068
s   1 1.0 
      132.9535830000        27.9051991663
s   1 1.0 
       59.0904820000        15.1896666015
s   1 1.0 
       26.2624360000         8.2682071254
s   1 1.0 
       11.6721940000         4.5006419631
s   1 1.0 
        5.1876420000         2.4498392620
s   1 1.0 
        2.3056190000         1.3335237321
s   1 1.0 
        1.0247190000         0.7258780834
s   1 1.0 
        0.4554310000         0.3951181991
s   1 1.0 
        0.2024140000         0.2150752828
s   1 1.0 
        0.0899620000         0.1170723723
s   1 1.0 
        0.0399830000         0.0637259950
s   1 1.0 
        0.0177700000         0.0346877127
p   5 1.0 
    13410.3010510000      2401.5364004241
     5364.1204200000      1024.5588215214
     2145.6481680000      1626.1321344023
      858.2592670000      1638.1793695256
      343.3037070000      1573.4149290153
p   1 1.0 
      137.3214830000       670.0592301905
p   1 1.0 
       54.9285930000       213.1513959541
p   1 1.0 
       21.9714370000        67.8052256278
p   1 1.0 
        8.7885750000        21.5694050932
p   1 1.0 
        3.5154300000         6.8614066030
p   1 1.0 
        1.4061720000         2.1826703318
p   1 1.0 
        0.5624690000         0.6943258388
p   1 1.0 
        0.2249880000         0.2208712972
p   1 1.0 
        0.0899950000         0.0702607958
p   1 1.0 
        0.0359980000         0.0223505417
p   1 1.0 
        0.0143990000         0.0071097692
d   4 1.0 
      918.9318400000      3603.5190663488
      334.1570330000      3495.8915352391
      121.5116480000      3244.5867394900
       44.1860540000      1718.4301569526
d   1 1.0 
       16.0676560000       367.6097339451
d   1 1.0 
        5.8427840000        62.5971828323
d   1 1.0 
        2.1246490000        10.6591524025
d   1 1.0 
        0.7726000000         1.8150592864
d   1 1.0 
        0.2809450000         0.3090703695
d   1 1.0 
        0.1021620000         0.0526291686
d   1 1.0 
        0.0371500000         0.0089618571
d   1 1.0 
        0.0135090000         0.0015260216
f   4 1.0 
       23.0540210000       712.1519496894
        7.6846740000       187.9678783496
        2.5615580000        24.4339048979
        0.8538530000         1.5279715144
f   1 1.0 
        0.2846180000         0.3373575197
f   1 1.0 
        0.0948730000         0.0284820343

  2 0
s   6 1.0 
    35479.1004410000         1.9229128581
     5318.4728983000         2.2734773358
     1210.4810975000         3.4747482552
      342.8551814000         5.2879612972
      112.0194318100         7.1666332516
       40.7147402500         7.7556346254
s   1 1.0 
       16.0396781100         5.7122450312
s   1 1.0 
        6.5038186700         2.9025947842
s   1 1.0 
        1.5440477500         0.9872011154
s   1 1.0 
        0.6122345300        -0.4932856223
s   1 1.0 
        0.2402798000         0.2445952611
p   4 1.0 
       80.2339004800         4.2755032106
       18.5940107400         4.7314752302
        5.6867902700         4.0864798013
        1.9511006300         2.2989954518
p   1 1.0 
        0.6697021100         0.8635593126
p   1 1.0 
        0.2165130000         0.2105208234
d   1 1.0 
        3.1070000000        20.7284714039
d   1 1.0 
        0.8550000000         2.1672588463
f   1 1.0 
        1.9170000000        24.6547062912

[5D]
[7F]
[9G]
[MO]
 Sym=     1a
 Ene= -1.60732517876529E+03
 Spin= Alpha
 Occup= 1.000000
  1       0.080655335733
  2       0.093496158808
  3       0.170836612826
  4       0.298998935134
  5       0.346280103557
  6       0.176839464048
  7       0.011066651204
  8       0.003123462941
  9      -0.002269374712
 10       0.001490999198
 11      -0.001004432073
 12       0.000671082420
 13      -0.000438931918
 14       0.000283475953
 15      -0.000176273453
 16       0.000098119694
 17      -0.000043829577
 18       0.000011957499
 19       0.000000081156
 20      -0.000000199525
 21      -0.000000047668
 22      -0.000000173870
 23       0.000000377242
 24       0.000000100641
 25       0.000000101015
 26      -0.000000227056
 27      -0.000000061506
 28      -0.000000154884
 29       0.000000342251
 30       0.000000094909
 31       0.000000233524
 32      -0.000000515981
 33      -0.000000145297
 34      -0.000000370451
 35       0.000000819740
 36       0.000000233989
 37       0.000000662223
 38      -0.000001464626
 39      -0.000000418873
 40      -0.000001177264
 41       0.000002602984
 42       0.000000745062
 43       0.000001534680
 44      -0.000003393533
 45      -0.000000971800
 46      -0.000000795583
 47       0.000001759168
 48       0.000000503699
 49      -0.000000053680
 50       0.000000118679
 51       0.000000034037
 52       0.000000028823
 53      -0.000000063727
 54      -0.000000018267
 55      -0.000000055503
 56      -0.000000010517
 57       0.000000022142
 58      -0.000000014389
 59      -0.000000018717
 60       0.000000103865
 61       0.000000022323
 62      -0.000000067795
 63       0.000000076082
 64       0.000000086046
 65      -0.000000160239
 66      -0.000000064662
 67       0.000000142256
 68      -0.000000192191
 69      -0.000000221243
 70       0.000000291390
 71       0.000000118362
 72      -0.000000268995
 73       0.000000368062
 74       0.000000418767
 75      -0.000000576801
 76      -0.000000246700
 77       0.000000545405
 78      -0.000000755282
 79      -0.000000859134
 80       0.000000963025
 81       0.000000413933
 82      -0.000000916045
 83       0.000001270931
 84       0.000001445290
 85      -0.000000541948
 86      -0.000000233047
 87       0.000000515656
 88      -0.000000715530
 89      -0.000000813695
 90      -0.000000078729
 91      -0.000000034255
 92       0.000000075589
 93      -0.000000105244
 94      -0.000000119636
 95       0.000000032226
 96       0.000000014000
 97      -0.000000030905
 98       0.000000043011
 99       0.000000048895
100      -0.000000063667
101       0.000000031264
102      -0.000000069200
103      -0.000000057151
104      -0.000000064621
105      -0.000000129188
106       0.000000039372
107       0.000000456704
108      -0.000000224334
109       0.000000496212
110       0.000000408029
111       0.000000463530
112       0.000000924016
113      -0.000000282243
114      -0.000000377153
115       0.000000185307
116      -0.000000409784
117      -0.000000336887
118      -0.000000382957
119      -0.000000763132
120       0.000000233197
121       0.000000020558
122      -0.000000107130
123       0.000000245226
124      -0.000001336990
125      -0.000003242154
126      -0.000002539290
127      -0.000000068701
128       0.000000151913
129       0.000000043518
130       0.000000870301
131      -0.000001924374
132      -0.000000551201
133       0.000000254478
134      -0.000000562675
135      -0.000000161107
136      -0.000000054746
137      -0.000000023609
138       0.000000052188
139      -0.000000072494
140      -0.000000082429
141      -0.000000193368
142      -0.000000083399
143       0.000000184440
144      -0.000000256062
145      -0.000000291168
146      -0.000000163592
147       0.000000080383
148      -0.000000177746
149      -0.000000146106
150      -0.000000166142
151      -0.000000331024
152       0.000000101175
 Sym=     1a
 Ene= -2.64527277304372E+02
 Spin= Alpha
 Occup= 1.000000
  1       0.029588608411
  2       0.037647261338
  3       0.069945304659
  4       0.144395873219
  5       0.206875654399
  6       0.096535633792
  7      -0.451500776251
  8      -0.615370996805
  9      -0.109987418145
 10      -0.003647960108
 11       0.003084742611
 12      -0.002193551156
 13       0.001597137575
 14      -0.001078264343
 15       0.000676719422
 16      -0.000379123091
 17       0.000169898911
 18      -0.000046435515
 19       0.000006769381
 20      -0.000013166261
 21      -0.000004284487
 22       0.000009848713
 23      -0.000019214742
 24      -0.000006163061
 25       0.000008039102
 26      -0.000015685493
 27      -0.000005133810
 28      -0.000000032738
 29       0.000000400627
 30      -0.000000230852
 31       0.000000163281
 32      -0.000000276972
 33      -0.000000011408
 34       0.000001171861
 35      -0.000002581873
 36      -0.000000765240
 37      -0.000002405701
 38       0.000005325279
 39       0.000001536449
 40       0.000004514910
 41      -0.000009995166
 42      -0.000002874354
 43      -0.000006204840
 44       0.000013721484
 45       0.000003932670
 46       0.000003023301
 47      -0.000006687159
 48      -0.000001918720
 49       0.000000254269
 50      -0.000000561271
 51      -0.000000159433
 52      -0.000000123737
 53       0.000000273287
 54       0.000000077831
 55       0.000005822819
 56      -0.000000161358
 57      -0.000001948017
 58       0.000000166549
 59       0.000000362962
 60      -0.000004381751
 61      -0.000002278570
 62       0.000000611751
 63      -0.000000485104
 64      -0.000000243059
 65       0.000000530814
 66       0.000000226263
 67      -0.000000304733
 68       0.000000448093
 69       0.000000516497
 70      -0.000001436260
 71      -0.000000731229
 72       0.000001002084
 73      -0.000001400983
 74      -0.000001595236
 75       0.000002465300
 76       0.000001073417
 77      -0.000002198804
 78       0.000003042618
 79       0.000003454279
 80      -0.000004053526
 81      -0.000001760421
 82       0.000003778484
 83      -0.000005244454
 84      -0.000005962687
 85       0.000002125884
 86       0.000000922858
 87      -0.000001984060
 88       0.000002753075
 89       0.000003129560
 90       0.000000305241
 91       0.000000128823
 92      -0.000000310753
 93       0.000000432465
 94       0.000000492124
 95      -0.000000123615
 96      -0.000000052353
 97       0.000000124583
 98      -0.000000173320
 99      -0.000000197211
100       0.000000313911
101      -0.000000171665
102       0.000000363425
103       0.000000313644
104       0.000000370066
105       0.000000697103
106      -0.000000224410
107      -0.000001935774
108       0.000000958442
109      -0.000002109912
110      -0.000001736668
111      -0.000001988809
112      -0.000003939965
113       0.000001211573
114       0.000001504345
115      -0.000000741557
116       0.000001636690
117       0.000001346745
118       0.000001535195
119       0.000003051538
120      -0.000000934819
121      -0.000000084301
122       0.000000432987
123      -0.000001049658
124       0.000005444811
125       0.000012584195
126       0.000009279992
127       0.000000328387
128      -0.000000726224
129      -0.000000208291
130      -0.000003473241
131       0.000007680403
132       0.000002200053
133      -0.000001139558
134       0.000002519482
135       0.000000721899
136       0.000000163516
137       0.000000070110
138      -0.000000155529
139       0.000000216395
140       0.000000246363
141       0.000000890201
142       0.000000384916
143      -0.000000850073
144       0.000001179370
145       0.000001340073
146       0.000000587074
147      -0.000000288774
148       0.000000638080
149       0.000000524637
150       0.000000596138
151       0.000001188705
152      -0.000000363048
 Sym=     1a
 Ene= -2.36695222596358E+02
 Spin= Alpha
 Occup= 1.000000
  1       0.000000046115
  2       0.000000056190
  3       0.000000117879
  4       0.000000197665
  5       0.000000402324
  6      -0.000000058227
  7      -0.000000433279
  8      -0.000001061802
  9       0.000000251201
 10      -0.000001788138
 11       0.000003269726
 12      -0.000005193970
 13       0.000008577334
 14      -0.000012572635
 15       0.000007226953
 16       0.000009723368
 17      -0.000005450076
 18       0.000001244132
 19       0.307989595288
 20       0.163038153409
 21       0.027439069242
 22       0.422358539140
 23       0.223580548257
 24       0.037628179105
 25       0.271781644598
 26       0.143870935787
 27       0.024212416187
 28       0.015579236908
 29       0.008245993210
 30       0.001389715198
 31       0.004769158492
 32       0.002525681218
 33       0.000426535189
 34      -0.003297322699
 35      -0.001747776681
 36      -0.000294124400
 37       0.001954400715
 38       0.001038952285
 39       0.000175404132
 40      -0.001166769726
 41      -0.000626143490
 42      -0.000106192343
 43       0.000676807593
 44       0.000369843041
 45       0.000063354783
 46      -0.000378168626
 47      -0.000195436027
 48      -0.000032440551
 49       0.000181402326
 50       0.000092428012
 51       0.000015212625
 52      -0.000057618062
 53      -0.000029478799
 54      -0.000004863804
 55       0.000000142419
 56       0.000001122918
 57       0.000001106407
 58      -0.000004686245
 59       0.000003112733
 60      -0.000000032175
 61      -0.000000041010
 62      -0.000000265149
 63       0.000000567509
 64      -0.000000595600
 65       0.000000261822
 66       0.000000089695
 67      -0.000000469415
 68       0.000000400948
 69       0.000000035628
 70      -0.000000612816
 71       0.000000048596
 72       0.000000826886
 73      -0.000001888578
 74      -0.000000000787
 75       0.000001443664
 76       0.000000023266
 77      -0.000001923022
 78       0.000004158210
 79       0.000000305718
 80      -0.000002854987
 81      -0.000000330531
 82       0.000003544150
 83      -0.000007214008
 84      -0.000001496454
 85      -0.000001017306
 86      -0.000001221022
 87       0.000000275640
 88       0.000001602396
 89      -0.000003952326
 90       0.000000883269
 91       0.000000297637
 92      -0.000000920481
 93       0.000001497939
 94       0.000001068525
 95      -0.000000271080
 96      -0.000000079046
 97       0.000000293685
 98      -0.000000507107
 99      -0.000000289705
100       0.000000502013
101       0.000001264333
102       0.000000503858
103       0.000000391732
104       0.000000493314
105       0.000000340978
106      -0.000000533796
107      -0.000002362428
108      -0.000000367484
109      -0.000001824625
110      -0.000002332602
111      -0.000000497479
112      -0.000002351354
113       0.000004187151
114       0.000000599465
115       0.000000668786
116       0.000000541890
117       0.000001527011
118      -0.000000566820
119      -0.000000340409
120      -0.000003648053
121       0.000000026145
122      -0.000000114897
123       0.000000132017
124       0.000000760729
125       0.000000466719
126      -0.000009418996
127       0.000002772186
128       0.000000819952
129       0.000000084224
130      -0.000010417846
131      -0.000000491562
132       0.000000372539
133       0.000005183108
134       0.000010778456
135       0.000002579728
136      -0.000000076625
137      -0.000000651134
138      -0.000000495272
139       0.000002264350
140      -0.000002034335
141       0.000001000562
142       0.000002667965
143       0.000001099310
144      -0.000007238809
145       0.000008454041
146       0.000000276446
147       0.000000281403
148       0.000000312868
149       0.000000912980
150      -0.000000293556
151      -0.000000189535
152      -0.000002089258
 Sym=     1a
 Ene= -2.36695048185720E+02
 Spin= Alpha
 Occup= 1.000000
  1      -0.000001431971
  2      -0.000001791659
  3      -0.000003507185
  4      -0.000006654542
  5      -0.000011137213
  6      -0.000001778024
  7       0.000019146831
  8       0.000030778684
  9      -0.000000772930
 10       0.000022100958
 11      -0.000041031141
 12       0.000064396807
 13      -0.000106192285
 14       0.000155881925
 15      -0.000089661999
 16      -0.000120342398
 17       0.000067507579
 18      -0.000015414224
 19       0.165326318861
 20      -0.304192059151
 21      -0.048252764790
 22       0.226717777611
 23      -0.417148813479
 24      -0.066170354273
 25       0.145888257638
 26      -0.268426638329
 27      -0.042579256635
 28       0.008358445079
 29      -0.015377886846
 30      -0.002438046982
 31       0.002567023284
 32      -0.004725340700
 33      -0.000751149230
 34      -0.001780549151
 35       0.003279909469
 36       0.000523199987
 37       0.001069808384
 38      -0.001975754052
 39      -0.000319003160
 40      -0.000666534116
 41       0.001240649733
 42       0.000207667058
 43       0.000417870351
 44      -0.000788275650
 45      -0.000139822377
 46      -0.000180653725
 47       0.000324436518
 48       0.000045409377
 49       0.000080410592
 50      -0.000141913559
 51      -0.000017916048
 52      -0.000026111742
 53       0.000046329692
 54       0.000006044190
 55       0.000003375597
 56       0.000001490037
 57      -0.000002566594
 58       0.000003901987
 59       0.000005402150
 60      -0.000000428029
 61      -0.000000141370
 62      -0.000000304593
 63       0.000000271468
 64       0.000000278444
 65      -0.000003041367
 66      -0.000001218525
 67       0.000002607640
 68      -0.000003542976
 69      -0.000004014213
 70       0.000007928120
 71       0.000003340040
 72      -0.000007481013
 73       0.000010516113
 74       0.000012126600
 75      -0.000018929141
 76      -0.000008009385
 77       0.000017599437
 78      -0.000024739968
 79      -0.000028445280
 80       0.000037068609
 81       0.000015768548
 82      -0.000034683564
 83       0.000048635647
 84       0.000055789770
 85       0.000011174861
 86       0.000005004627
 87      -0.000011230386
 88       0.000015186553
 89       0.000016849706
 90      -0.000011119225
 91      -0.000004776433
 92       0.000010537096
 93      -0.000014680045
 94      -0.000016739048
 95       0.000003437134
 96       0.000001473653
 97      -0.000003248025
 98       0.000004531663
 99       0.000005173905
100      -0.000002769714
101       0.000001805038
102      -0.000003455186
103      -0.000002472078
104      -0.000003158464
105      -0.000004751510
106       0.000001511729
107       0.000019717139
108      -0.000010131802
109       0.000021969792
110       0.000017533510
111       0.000020214788
112       0.000040165479
113      -0.000012062890
114      -0.000004348645
115       0.000002454526
116      -0.000005219691
117      -0.000003781288
118      -0.000004511439
119      -0.000009255999
120       0.000002568998
121      -0.000000325838
122       0.000001433965
123      -0.000001653734
124      -0.000009399898
125      -0.000005788177
126       0.000116494260
127      -0.000001555759
128       0.000003947082
129       0.000001450228
130       0.000018079515
131      -0.000041691376
132      -0.000013021347
133       0.000040659342
134      -0.000088286855
135      -0.000024263126
136      -0.000000256961
137       0.000000033941
138      -0.000000214249
139      -0.000000034634
140      -0.000000375924
141      -0.000008047211
142      -0.000003995027
143       0.000009338116
144      -0.000011767573
145      -0.000012163055
146      -0.000002602126
147       0.000001425869
148      -0.000003083042
149      -0.000002266645
150      -0.000002672982
151      -0.000005592559
152       0.000001552529
 Sym=     1a
 Ene= -2.36693990371388E+02
 Spin= Alpha
 Occup= 1.000000
  1      -0.000000212361
  2      -0.000000267131
  3      -0.000000515451
  4      -0.000001002737
  5      -0.000001611262
  6      -0.000000386639
  7       0.000003066631
  8       0.000004755533
  9      -0.000000545559
 10       0.000002488433
 11      -0.000004547610
 12       0.000007267125
 13      -0.000011990865
 14       0.000017563071
 15      -0.000010089153
 16      -0.000013592081
 17       0.000007611178
 18      -0.000001737148
 19       0.001372910624
 20       0.055491329996
 21      -0.345125285167
 22       0.001882668585
 23       0.076097872222
 24      -0.473284727927
 25       0.001212125594
 26       0.048966992158
 27      -0.304544064748
 28       0.000067181703
 29       0.002807393472
 30      -0.017459012573
 31       0.000020748699
 32       0.000858420314
 33      -0.005351974725
 34      -0.000016076942
 35      -0.000591708563
 36       0.003696154820
 37       0.000010842119
 38       0.000347540265
 39      -0.002194024124
 40      -0.000009548327
 41      -0.000201213370
 42       0.001313831276
 43       0.000008926335
 44       0.000109689216
 45      -0.000767045084
 46       0.000000749362
 47      -0.000073199417
 48       0.000420361253
 49      -0.000001032206
 50       0.000036510406
 51      -0.000200677064
 52       0.000000265731
 53      -0.000011467872
 54       0.000063829054
 55      -0.000002241074
 56       0.000002478771
 57      -0.000004561334
 58      -0.000000666761
 59      -0.000000273532
 60       0.000000347751
 61      -0.000000526372
 62       0.000001210459
 63       0.000000414605
 64       0.000000262590
 65      -0.000000112141
 66      -0.000000329657
 67       0.000000765735
 68      -0.000000314705
 69      -0.000000293125
 70       0.000000288533
 71       0.000000868876
 72      -0.000001831040
 73       0.000000960582
 74       0.000001159695
 75      -0.000000827634
 76      -0.000002039725
 77       0.000004403894
 78      -0.000002166994
 79      -0.000002759898
 80       0.000002213892
 81       0.000003500012
 82      -0.000007554584
 83       0.000004546108
 84       0.000005613268
 85       0.000002952571
 86      -0.000000916556
 87       0.000001854585
 88       0.000002538817
 89       0.000002488301
 90      -0.000001069691
 91      -0.000000703634
 92       0.000001537690
 93      -0.000001565890
 94      -0.000001824077
 95       0.000000304089
 96       0.000000240538
 97      -0.000000523765
 98       0.000000470381
 99       0.000000554644
100      -0.000001836300
101      -0.000001326566
102      -0.000000064456
103      -0.000000772182
104      -0.000000008167
105      -0.000000880006
106       0.000000210643
107       0.000004006991
108       0.000000881386
109       0.000000637732
110       0.000003737046
111       0.000003795972
112       0.000003934482
113      -0.000000725114
114      -0.000002224493
115      -0.000001015284
116       0.000001684439
117      -0.000002059892
118      -0.000002342851
119      -0.000000278165
120      -0.000000224665
121      -0.000000036155
122       0.000000158668
123      -0.000000181016
124      -0.000001068526
125      -0.000000657407
126       0.000013172796
127      -0.000000324910
128       0.000001183835
129      -0.000002642526
130       0.000002537810
131      -0.000007193838
132       0.000008021206
133       0.000004133844
134      -0.000007595033
135      -0.000011692975
136       0.000001319798
137      -0.000001183211
138       0.000002488195
139       0.000000645243
140       0.000000426343
141      -0.000005785158
142       0.000003845732
143      -0.000008039344
144      -0.000003674087
145      -0.000003061598
146      -0.000001217537
147      -0.000000420281
148       0.000000987748
149      -0.000001151945
150      -0.000001397542
151      -0.000000159584
152      -0.000000096357
 Sym=     1a
 Ene= -5.94529366644362E+01
 Spin= Alpha
 Occup= 1.000000
  1       0.013637756724
  2       0.017556622251
  3       0.032961117242
  4       0.069069046434
  5       0.104755987516
  6       0.046479306332
  7      -0.332145600523
  8      -0.694871776030
  9       0.334271884700
 10       0.945908005487
 11       0.081449678299
 12       0.029075812507
 13      -0.019798050744
 14       0.013453515915
 15      -0.008674111633
 16       0.004886266993
 17      -0.002199478042
 18       0.000602591281
 19       0.000019282586
 20      -0.000035349754
 21      -0.000015783923
 22       0.000029901126
 23      -0.000055015353
 24      -0.000024307191
 25       0.000007358430
 26      -0.000013496576
 27      -0.000005667896
 28      -0.000084850252
 29       0.000157658192
 30       0.000066198705
 31      -0.000033970048
 32       0.000057662752
 33       0.000032635465
 34      -0.000008381655
 35       0.000023030330
 36       0.000004089464
 37       0.000026145846
 38      -0.000059892873
 39      -0.000016027786
 40      -0.000058293533
 41       0.000129870927
 42       0.000036476717
 43       0.000078982316
 44      -0.000175316884
 45      -0.000049862751
 46      -0.000039335041
 47       0.000087335753
 48       0.000024819540
 49      -0.000003074300
 50       0.000006629467
 51       0.000001999543
 52       0.000001543967
 53      -0.000003360736
 54      -0.000000995256
 55       0.000074388418
 56       0.000068494309
 57       0.000011480609
 58      -0.000002199985
 59      -0.000018505999
 60       0.000126719791
 61       0.000115972419
 62       0.000014449040
 63       0.000001681170
 64      -0.000025234526
 65       0.000205895354
 66       0.000087611073
 67      -0.000017877574
 68      -0.000001073090
 69      -0.000022797153
 70       0.000021161861
 71       0.000004986157
 72      -0.000015001503
 73       0.000017162147
 74       0.000019564088
 75      -0.000020111235
 76      -0.000008094068
 77       0.000026805810
 78      -0.000037997045
 79      -0.000044433929
 80       0.000046091799
 81       0.000019498846
 82      -0.000047643244
 83       0.000066434213
 84       0.000076033845
 85      -0.000025375767
 86      -0.000010772017
 87       0.000026092184
 88      -0.000036351284
 89      -0.000041596255
 90      -0.000005014532
 91      -0.000002247884
 92       0.000003924080
 93      -0.000005378306
 94      -0.000005991310
 95       0.000001961962
 96       0.000000875185
 97      -0.000001578448
 98       0.000002167416
 99       0.000002422037
100      -0.000004761863
101       0.000002194982
102      -0.000004881612
103      -0.000004502470
104      -0.000004387854
105      -0.000010127905
106       0.000002924635
107       0.000024265268
108      -0.000011846000
109       0.000026276011
110       0.000021796696
111       0.000024372319
112       0.000049196154
113      -0.000014914544
114      -0.000019512699
115       0.000009547274
116      -0.000021138630
117      -0.000017475380
118      -0.000019732613
119      -0.000039506944
120       0.000012041217
121       0.000000640844
122      -0.000005290790
123       0.000013169930
124      -0.000070264663
125      -0.000162261066
126      -0.000118561840
127      -0.000004324273
128       0.000009549488
129       0.000002728897
130       0.000045608175
131      -0.000100803460
132      -0.000028833201
133       0.000015066221
134      -0.000033350463
135      -0.000009621998
136      -0.000001400119
137      -0.000000605554
138       0.000001329252
139      -0.000001851479
140      -0.000002096398
141      -0.000013046301
142      -0.000005613700
143       0.000012435494
144      -0.000017274095
145      -0.000019672321
146      -0.000006465781
147       0.000003168994
148      -0.000007020877
149      -0.000005762182
150      -0.000006566147
151      -0.000013045490
152       0.000003995255
 Sym=     1a
 Ene= -5.04310550098181E+01
 Spin= Alpha
 Occup= 1.000000
  1      -0.000000648243
  2      -0.000000840964
  3      -0.000001546419
  4      -0.000003356586
  5      -0.000004840599
  6      -0.000002586583
  7       0.000017211243
  8       0.000031177840
  9      -0.000014177931
 10      -0.000053934677
 11       0.000022399990
 12      -0.000051977812
 13       0.000087112074
 14      -0.000127998804
 15       0.000072076405
 16       0.000106838076
 17      -0.000057725040
 18       0.000013119653
 19      -0.052857311408
 20       0.006442102171
 21      -0.174558351916
 22      -0.082339229682
 23       0.010035188513
 24      -0.271924319545
 25      -0.006082276470
 26       0.000740656158
 27      -0.020067036124
 28       0.202389935959
 29      -0.024657568525
 30       0.668313591200
 31       0.114555008519
 32      -0.013964622859
 33       0.378361001406
 34      -0.004646194182
 35       0.000520656994
 36      -0.015212452307
 37       0.005148931231
 38      -0.000593927845
 39       0.017058322956
 40      -0.002992701364
 41       0.000296460896
 42      -0.009992852523
 43       0.001712315987
 44      -0.000115283768
 45       0.005820232650
 46      -0.000995136175
 47       0.000162206627
 48      -0.003204150163
 49       0.000481774015
 50      -0.000087941890
 51       0.001533552100
 52      -0.000152862145
 53       0.000026907992
 54      -0.000488454122
 55       0.000029492678
 56      -0.000017278859
 57       0.000039402091
 58      -0.000004020224
 59       0.000015430549
 60       0.000032596884
 61      -0.000021235452
 62       0.000047995355
 63      -0.000008686013
 64       0.000012453013
 65       0.000004833596
 66      -0.000002298299
 67       0.000006667092
 68       0.000004702283
 69       0.000007243028
 70      -0.000001960940
 71      -0.000007049214
 72       0.000017951846
 73      -0.000009079959
 74      -0.000006086870
 75       0.000004792469
 76       0.000014254620
 77      -0.000035733974
 78       0.000021855867
 79       0.000013854903
 80      -0.000015808126
 81      -0.000024394935
 82       0.000059831019
 83      -0.000042422315
 84      -0.000034025484
 85      -0.000023288605
 86       0.000004181603
 87      -0.000013955351
 88      -0.000013545873
 89      -0.000026506235
 90       0.000008077116
 91       0.000005193311
 92      -0.000012068944
 93       0.000012816467
 94       0.000013181965
 95      -0.000002288155
 96      -0.000001740462
 97       0.000004103652
 98      -0.000003961031
 99      -0.000003892999
100       0.000140372306
101       0.000099964905