[Molden Format]
[Title]
 Molden file created by orca_2mkl for BaseName=/home/smirnovaanastasia2304_2125/_scratch/HERBD/Er_Cl_cc

[Atoms] AU
Er   1  68          0.2956155283         0.4990294288        -0.7612912909 
Cl   2  17         -1.6028770451        -2.4651439622        -3.6402758278 
Cl   3  17         -1.8092597054         4.4100141945         0.3424410522 
Cl   4  17          4.6831060770        -0.2284206464         0.2218122741 
[GTO]
  1 0
s   6 1.0 
  1280982.1879360001      2520.6148364459
   569325.4168600000      -681.3957563930
   253033.5186050000      1460.6740705580
   112459.3416020000       312.1436294738
    49981.9296010000       863.9077130156
    22214.1909340000       629.2071075609
s   1 1.0 
     9872.9737480000       705.9047087998
s   1 1.0 
     4387.9883330000       384.2458541670
s   1 1.0 
     1950.2170370000       209.1569507843
s   1 1.0 
      866.7631270000       113.8506234070
s   1 1.0 
      385.2280570000        61.9724298993
s   1 1.0 
      171.2124700000        33.7335181159
s   1 1.0 
       76.0944310000        18.3622014494
s   1 1.0 
       33.8197470000         9.9951164432
s   1 1.0 
       15.0309990000         5.4406523584
s   1 1.0 
        6.6804440000         2.9615160324
s   1 1.0 
        2.9690860000         1.6120450527
s   1 1.0 
        1.3195940000         0.8774862934
s   1 1.0 
        0.5864860000         0.4776429032
s   1 1.0 
        0.2606610000         0.2599962805
s   1 1.0 
        0.1158490000         0.1415237440
s   1 1.0 
        0.0514880000         0.0770352700
s   1 1.0 
        0.0228840000         0.0419333005
p   5 1.0 
    17602.8164910000      4022.4508342837
     7041.1265960000      1545.5382950479
     2816.4506390000      2442.5227289582
     1126.5802550000      2329.4326719729
      450.6321020000      2190.8967379529
p   1 1.0 
      180.2528410000       941.4401934414
p   1 1.0 
       72.1011360000       299.4799294147
p   1 1.0 
       28.8404550000        95.2670511641
p   1 1.0 
       11.5361820000        30.3052388827
p   1 1.0 
        4.6144730000         9.6403482870
p   1 1.0 
        1.8457890000         3.0666743077
p   1 1.0 
        0.7383160000         0.9755351853
p   1 1.0 
        0.2953260000         0.3103253057
p   1 1.0 
        0.1181310000         0.0987176796
p   1 1.0 
        0.0472520000         0.0314025801
p   1 1.0 
        0.0189010000         0.0099895532
d   4 1.0 
     1280.6903600000      6403.7653961462
      465.7055860000      6055.6208623721
      169.3474860000      5668.4317575873
       61.5809040000      3092.7344183634
d   1 1.0 
       22.3930560000       657.1559952900
d   1 1.0 
        8.1429290000       111.9015797720
d   1 1.0 
        2.9610650000        19.0547818108
d   1 1.0 
        1.0767510000         3.2446796886
d   1 1.0 
        0.3915460000         0.5525097787
d   1 1.0 
        0.1423800000         0.0940818424
d   1 1.0 
        0.0517750000         0.0160206551
d   1 1.0 
        0.0188270000         0.0027279540
f   4 1.0 
       37.3757410000      2115.7106758334
       12.4585800000       583.6684471563
        4.1528600000        72.9133455825
        1.3842870000         4.2858523755
f   1 1.0 
        0.4614290000         1.0005437237
f   1 1.0 
        0.1538100000         0.0844725037

  2 0
s   7 1.0 
    69507.9909450000         4.1142286333
    10426.1568800000         4.2286655222
     2373.2334061000         5.8493829067
      671.5642007100         8.3358677251
      218.4199979000        10.0089622684
       77.5722497100         8.2783277553
       28.8888152800         2.9822029766
s   1 1.0 
      127.1052718500        26.9794296956
s   1 1.0 
       39.3395829600        11.1952141621
s   1 1.0 
        7.6740680000         3.2860890225
s   1 1.0 
        3.8745627600        -1.9682357562
s   1 1.0 
        1.8385832600         1.1253110111
s   1 1.0 
        0.5022905800        -0.4252324193
s   1 1.0 
        0.1796272300         0.1966478587
p   6 1.0 
      666.5042328400        13.1758105786
      157.6424169000        16.0544655669
       50.2625209800        17.4320614645
       18.5360781100        14.3789566857
        7.2940532800         7.6571902731
        2.9433249000         1.9874071930
p   1 1.0 
        1.0404970800         1.4979287975
p   1 1.0 
        0.3845641500        -0.4316692201
p   1 1.0 
        0.1306964300         0.1120133392
d   2 1.0 
        4.6100000000         7.5524217504
        1.0110000000         2.6539585854
d   1 1.0 
        0.3390000000         0.4293579962
f   1 1.0 
        0.7060000000         2.6050175686

  3 0
s   7 1.0 
    69507.9909450000         4.1142286333
    10426.1568800000         4.2286655222
     2373.2334061000         5.8493829067
      671.5642007100         8.3358677251
      218.4199979000        10.0089622684
       77.5722497100         8.2783277553
       28.8888152800         2.9822029766
s   1 1.0 
      127.1052718500        26.9794296956
s   1 1.0 
       39.3395829600        11.1952141621
s   1 1.0 
        7.6740680000         3.2860890225
s   1 1.0 
        3.8745627600        -1.9682357562
s   1 1.0 
        1.8385832600         1.1253110111
s   1 1.0 
        0.5022905800        -0.4252324193
s   1 1.0 
        0.1796272300         0.1966478587
p   6 1.0 
      666.5042328400        13.1758105786
      157.6424169000        16.0544655669
       50.2625209800        17.4320614645
       18.5360781100        14.3789566857
        7.2940532800         7.6571902731
        2.9433249000         1.9874071930
p   1 1.0 
        1.0404970800         1.4979287975
p   1 1.0 
        0.3845641500        -0.4316692201
p   1 1.0 
        0.1306964300         0.1120133392
d   2 1.0 
        4.6100000000         7.5524217504
        1.0110000000         2.6539585854
d   1 1.0 
        0.3390000000         0.4293579962
f   1 1.0 
        0.7060000000         2.6050175686

  4 0
s   7 1.0 
    69507.9909450000         4.1142286333
    10426.1568800000         4.2286655222
     2373.2334061000         5.8493829067
      671.5642007100         8.3358677251
      218.4199979000        10.0089622684
       77.5722497100         8.2783277553
       28.8888152800         2.9822029766
s   1 1.0 
      127.1052718500        26.9794296956
s   1 1.0 
       39.3395829600        11.1952141621
s   1 1.0 
        7.6740680000         3.2860890225
s   1 1.0 
        3.8745627600        -1.9682357562
s   1 1.0 
        1.8385832600         1.1253110111
s   1 1.0 
        0.5022905800        -0.4252324193
s   1 1.0 
        0.1796272300         0.1966478587
p   6 1.0 
      666.5042328400        13.1758105786
      157.6424169000        16.0544655669
       50.2625209800        17.4320614645
       18.5360781100        14.3789566857
        7.2940532800         7.6571902731
        2.9433249000         1.9874071930
p   1 1.0 
        1.0404970800         1.4979287975
p   1 1.0 
        0.3845641500        -0.4316692201
p   1 1.0 
        0.1306964300         0.1120133392
d   2 1.0 
        4.6100000000         7.5524217504
        1.0110000000         2.6539585854
d   1 1.0 
        0.3390000000         0.4293579962
f   1 1.0 
        0.7060000000         2.6050175686

[5D]
[7F]
[9G]
[MO]
 Sym=     1a
 Ene= -2.11993485891786E+03
 Spin= Alpha
 Occup= 1.000000
  1       0.093919137089
  2       0.102779602772
  3       0.177281416341
  4       0.300655109681
  5       0.335098434738
  6       0.167595972748
  7       0.009242436059
  8       0.003356309164
  9      -0.002443157299
 10       0.001617438897
 11      -0.001087222290
 12       0.000729362468
 13      -0.000484596602
 14       0.000323670551
 15      -0.000214743913
 16       0.000122945322
 17      -0.000038920644
 18       0.000009446215
 19      -0.000000045603
 20      -0.000000013845
 21       0.000000089865
 22       0.000000038416
 23       0.000000014029
 24      -0.000000079375
 25      -0.000000036646
 26      -0.000000010728
 27       0.000000074598
 28       0.000000045711
 29       0.000000012208
 30      -0.000000093396
 31      -0.000000068135
 32      -0.000000016666
 33       0.000000139371
 34       0.000000110289
 35       0.000000025329
 36      -0.000000225661
 37      -0.000000188377
 38      -0.000000042406
 39       0.000000386270
 40       0.000000321565
 41       0.000000079902
 42      -0.000000665784
 43      -0.000000485944
 44      -0.000000219643
 45       0.000001051181
 46       0.000000522047
 47       0.000000461664
 48      -0.000001223169
 49      -0.000000021174
 50       0.000000047485
 51       0.000000020225
 52      -0.000000033044
 53      -0.000000030614
 54       0.000000074612
 55      -0.000000014783
 56       0.000000014390
 57       0.000000020704
 58       0.000000002719
 59      -0.000000008703
 60       0.000000106923
 61      -0.000000094983
 62      -0.000000148105
 63      -0.000000018974
 64       0.000000065238
 65      -0.000000258684
 66       0.000000229259
 67       0.000000358586
 68       0.000000046390
 69      -0.000000157524
 70       0.000000536113
 71      -0.000000475130
 72      -0.000000743431
 73      -0.000000096695
 74       0.000000325923
 75      -0.000001072551
 76       0.000000951841
 77       0.000001487528
 78       0.000000194240
 79      -0.000000650596
 80       0.000002104927
 81      -0.000001864024
 82      -0.000002910186
 83      -0.000000376354
 84       0.000001277809
 85      -0.000003637676
 86       0.000003150718
 87       0.000004964741
 88       0.000000594876
 89      -0.000002256194
 90      -0.000000158362
 91       0.000000234550
 92       0.000000228658
 93       0.000000087400
 94      -0.000000012881
 95       0.000000278721
 96      -0.000000245184
 97      -0.000000381420
 98      -0.000000048887
 99       0.000000169931
100      -0.000000044043
101      -0.000000072696
102      -0.000000096178
103       0.000000066224
104      -0.000000170823
105      -0.000000247177
106       0.000000066204
107       0.000000311166
108       0.000000497458
109       0.000000663699
110      -0.000000456147
111       0.000001190554
112       0.000001717796
113      -0.000000457836
114      -0.000000965944
115      -0.000001349717
116      -0.000001894526
117       0.000001249929
118      -0.000003458229
119      -0.000004983996
120       0.000001300777
121       0.000000060452
122      -0.000000067269
123       0.000000061297
124      -0.000000463297
125      -0.000000930614
126      -0.000000701553
127      -0.000000230730
128      -0.000006380013
129       0.000000038555
130       0.000000055097
131       0.000000050890
132      -0.000000201692
133      -0.000000285063
134      -0.000000263223
135       0.000000499216
136       0.000000834761
137       0.000000832662
138      -0.000001067342
139      -0.000002028141
140      -0.000001967908
141       0.000000063730
142      -0.000000206435
143      -0.000000267431
144       0.000000013649
145      -0.000000075922
146      -0.000000180215
147       0.000000644208
148       0.000000811228
149      -0.000000038700
150       0.000000281859
151      -0.000000630723
152       0.000000436525
153       0.000000654259
154      -0.000000479706
155       0.000001077078
156       0.000000512764
157      -0.000000078778
158       0.000000054799
159      -0.000000060937
160       0.000000055385
161      -0.000000416164
162      -0.000000827831
163      -0.000000607586
164      -0.000000291401
165      -0.000006491905
166       0.000000035566
167      -0.000000062856
168      -0.000000021384
169      -0.000000166397
170       0.000000291885
171       0.000000102264
172       0.000000670480
173      -0.000001276000
174      -0.000000324770
175      -0.000001428274
176       0.000002678380
177       0.000000688450
178       0.000000176926
179      -0.000000034434
180      -0.000000203544
181       0.000000083325
182       0.000000199447
183      -0.000000460839
184       0.000000101052
185       0.000000555215
186      -0.000000199462
187      -0.000000511853
188       0.000000553377
189      -0.000000362499
190       0.000000599751
191       0.000000489732
192       0.000000529065
193       0.000001095160
194      -0.000000050446
195       0.000000059151
196      -0.000000065812
197       0.000000059933
198      -0.000000452366
199      -0.000000906599
200      -0.000000679221
201      -0.000000240542
202      -0.000006368906
203      -0.000000078952
204       0.000000012150
205      -0.000000022131
206       0.000000400638
207      -0.000000060211
208       0.000000114560
209      -0.000001272111
210       0.000000223790
211      -0.000000241410
212       0.000002922886
213      -0.000000628823
214       0.000000475116
215       0.000000179536
216      -0.000000186343
217      -0.000000100166
218      -0.000000202851
219       0.000000078720
220      -0.000000518552
221       0.000000577543
222       0.000000276893
223       0.000000623360
224      -0.000000212367
225       0.000000519961
226       0.000000758021
227      -0.000000150124
228      -0.000000671447
229       0.000000101797
230       0.000000993410
231      -0.000000565125
 Sym=     1a
 Ene= -3.61562402267914E+02
 Spin= Alpha
 Occup= 1.000000
  1       0.035699995065
  2       0.043194880297
  3       0.075349281046
  4       0.150793611222
  5       0.203034560177
  6       0.070365464778
  7      -0.485046318303
  8      -0.589833080443
  9      -0.087199629821
 10      -0.004650763037
 11       0.004102450998
 12      -0.002898212780
 13       0.002060088590
 14      -0.001420258893
 15       0.000950083817
 16      -0.000547099384
 17       0.000172967210
 18      -0.000042028219
 19       0.000000248639
 20      -0.000000100727
 21      -0.000000263970
 22       0.000000379270
 23      -0.000000134372
 24      -0.000000434651
 25       0.000000409203
 26      -0.000000085281
 27      -0.000000561546
 28       0.000000055966
 29       0.000000045802
 30      -0.000000085424
 31       0.000000191477
 32       0.000000016291
 33      -0.000000384636
 34      -0.000000436586
 35      -0.000000089016
 36       0.000000891248
 37       0.000000793615
 38       0.000000169525
 39      -0.000001626296
 40      -0.000001400118
 41      -0.000000342088
 42       0.000002899029
 43       0.000002162997
 44       0.000000987653
 45      -0.000004683898
 46      -0.000002330166
 47      -0.000002093846
 48       0.000005471795
 49       0.000000092715
 50      -0.000000216924
 51      -0.000000084475
 52       0.000000148355
 53       0.000000139169
 54      -0.000000335645
 55       0.000000527702
 56      -0.000000601374
 57      -0.000000724103
 58      -0.000000072875
 59       0.000000314033
 60      -0.000000185241
 61       0.000000148435
 62       0.000000276739
 63       0.000000064176
 64      -0.000000096929
 65       0.000000925845
 66      -0.000000821918
 67      -0.000001294554
 68      -0.000000183296
 69       0.000000551977
 70      -0.000002208877
 71       0.000001962806
 72       0.000003070629
 73       0.000000409142
 74      -0.000001334261
 75       0.000004742185
 76      -0.000004208956
 77      -0.000006579398
 78      -0.000000862786
 79       0.000002873633
 80      -0.000009404512
 81       0.000008328757
 82       0.000013002837
 83       0.000001683637
 84      -0.000005707078
 85       0.000016362844
 86      -0.000014166252
 87      -0.000022327679
 88      -0.000002672626
 89       0.000010152478
 90       0.000000720263
 91      -0.000001065598
 92      -0.000001039470
 93      -0.000000396282
 94       0.000000059859
 95      -0.000001249971
 96       0.000001099752
 97       0.000001710199
 98       0.000000219152
 99      -0.000000761950
100       0.000000218723
101       0.000000360352
102       0.000000478202
103      -0.000000328517
104       0.000000848044
105       0.000001228103
106      -0.000000329747
107      -0.000001414288
108      -0.000002259847
109      -0.000003015196
110       0.000002072578
111      -0.000005410401
112      -0.000007805775
113       0.000002080428
114       0.000004363185
115       0.000006092731
116       0.000008554355
117      -0.000005642125
118       0.000015615384
119       0.000022505516
120      -0.000005873172
121      -0.000000121903
122       0.000000170615
123      -0.000000258872
124       0.000001859142
125       0.000003837265
126       0.000002888906
127       0.000000963754
128       0.000028785640
129      -0.000000176941
130      -0.000000253440
131      -0.000000234630
132       0.000000887175
133       0.000001251382
134       0.000001154387
135      -0.000002314377
136      -0.000003861724
137      -0.000003849318
138       0.000004781483
139       0.000009103595
140       0.000008833386
141      -0.000000284723
142       0.000000942424
143       0.000001224222
144      -0.000000067179
145       0.000000354395
146       0.000000824903
147      -0.000002862909
148      -0.000003591266
149       0.000000152311
150      -0.000001224232
151       0.000002816835
152      -0.000001946130
153      -0.000002915948
154       0.000002137357
155      -0.000004799681
156      -0.000002281199
157       0.000000350515
158      -0.000000110174
159       0.000000154248
160      -0.000000233506
161       0.000001666523
162       0.000003406609
163       0.000002493060
164       0.000001262219
165       0.000029322333
166      -0.000000163285
167       0.000000289113
168       0.000000097752
169       0.000000724257
170      -0.000001268204
171      -0.000000447032
172      -0.000003092554
173       0.000005882321
174       0.000001501029
175       0.000006417826
176      -0.000012036092
177      -0.000003091286
178      -0.000000806182
179       0.000000151076
180       0.000000924968
181      -0.000000385095
182      -0.000000913421
183       0.000002037414
184      -0.000000476922
185      -0.000002469683
186       0.000000852855
187       0.000002239270
188      -0.000002466032
189       0.000001616775
190      -0.000002671115
191      -0.000002186246
192      -0.000002353165
193      -0.000004874227
194       0.000000221832
195      -0.000000119198
196       0.000000166833
197      -0.000000253002
198       0.000001814306
199       0.000003736251
200       0.000002794408
201       0.000001013416
202       0.000028742541
203       0.000000363263
204      -0.000000055932
205       0.000000101114
206      -0.000001755503
207       0.000000263154
208      -0.000000504356
209       0.000005880623
210      -0.000001032597
211       0.000001121716
212      -0.000013120294
213       0.000002828363
214      -0.000002125371
215      -0.000000820027
216       0.000000848890
217       0.000000450158
218       0.000000933799
219      -0.000000361602
220       0.000002297950
221      -0.000002571494
222      -0.000001257577
223      -0.000002734606
224       0.000000931958
225      -0.000002318622
226      -0.000003379024
227       0.000000670778
228       0.000002994687
229      -0.000000448273
230      -0.000004423442
231       0.000002518705
 Sym=     1a
 Ene= -3.20633990028622E+02
 Spin= Alpha
 Occup= 1.000000
  1       0.000000033068
  2       0.000000042716
  3       0.000000062037
  4       0.000000169123
  5       0.000000125547
  6       0.000000218580
  7      -0.000000903878
  8       0.000000066429
  9      -0.000000954483
 10       0.000002105548
 11      -0.000003680042
 12       0.000005865878
 13      -0.000009031437
 14       0.000011660144
 15      -0.000006809170
 16      -0.000002729261
 17       0.000001457287
 18      -0.000000861522
 19      -0.016574069246
 20       0.315742638114
 21       0.172345360520
 22      -0.022074323764
 23       0.420526316927
 24       0.229540594865
 25      -0.013846320143
 26       0.263777537834
 27       0.143980715589
 28      -0.000653910430
 29       0.012463296674
 30       0.006802794483
 31      -0.000263218389
 32       0.005002826467
 33       0.002731073866
 34       0.000181437215
 35      -0.003435430447
 36      -0.001875780452
 37      -0.000111770235
 38       0.002092692255
 39       0.001143324164
 40       0.000072129575
 41      -0.001315493907
 42      -0.000719891491
 43      -0.000048037372
 44       0.000842113456
 45       0.000462035599
 46       0.000028484445
 47      -0.000483575537
 48      -0.000264890055
 49      -0.000007953234
 50       0.000167506485
 51       0.000091304388
 52       0.000001510837
 53      -0.000043134631
 54      -0.000023435995
 55       0.000000077309
 56      -0.000000028020
 57       0.000000146498
 58      -0.000000051741
 59      -0.000000065757
 60      -0.000000856775
 61      -0.000001349315
 62      -0.000000644678
 63      -0.000000535497
 64      -0.000002208516
 65       0.000002777286
 66       0.000003904356
 67       0.000002162981
 68       0.000001706252
 69       0.000006426323
 70      -0.000006360454
 71      -0.000009111035
 72      -0.000004863395
 73      -0.000003978419
 74      -0.000015006925
 75       0.000012955821
 76       0.000018581442
 77       0.000009892701
 78       0.000008088592
 79       0.000030614244
 80      -0.000021507895
 81      -0.000030579980
 82      -0.000016178185
 83      -0.000013243845
 84      -0.000050637210
 85       0.000017362292
 86       0.000022299029
 87       0.000010348978
 88       0.000010201175
 89       0.000039074953
 90       0.000004699900
 91       0.000006502652
 92       0.000003304251
 93       0.000002569828
 94       0.000011207407
 95      -0.000003888778
 96      -0.000005391523
 97      -0.000002653942
 98      -0.000002489119
 99      -0.000009087214
100       0.000002065914
101      -0.000001646948
102      -0.000000114290
103       0.000001970521
104      -0.000001035185
105       0.000000961146
106       0.000000070563
107      -0.000012919452
108       0.000010116090
109       0.000000593878
110      -0.000012238048
111       0.000006459942
112      -0.000006044592
113      -0.000000296029
114       0.000014408840
115      -0.000010083655
116       0.000000117685
117       0.000013367288
118      -0.000005279444
119       0.000008477396
120      -0.000000793168
121       0.000000456138
122      -0.000000637446
123       0.000000998991
124      -0.000007000385
125      -0.000013750488
126      -0.000008296558
127       0.000017208383
128      -0.000027544992
129       0.000001913742
130       0.000002950275
131       0.000002881287
132      -0.000010828625
133      -0.000017262095
134      -0.000016630721
135      -0.000009710994
136      -0.000019356558
137      -0.000017164317
138      -0.000012438674
139      -0.000019978020
140      -0.000019308100
141      -0.000001432138
142      -0.000005017053
143      -0.000007954347
144       0.000002502035
145      -0.000005748425
146       0.000005274933
147       0.000019764329
148       0.000033124448
149      -0.000011351957
150       0.000022566960
151      -0.000008967924
152       0.000008610546
153       0.000012071680
154      -0.000007483977
155       0.000021298484
156       0.000010997162
157      -0.000003440854
158      -0.000000431126
159       0.000000601988
160      -0.000000941391
161       0.000006545520
162       0.000012686674
163       0.000007231179
164      -0.000016126013
165       0.000034038451
166      -0.000002051346
167       0.000003841328
168       0.000001086604
169       0.000011360089
170      -0.000021766460
171      -0.000006299051
172       0.000009026234
173      -0.000021023037
174      -0.000007082030
175       0.000014752339
176      -0.000028991852
177      -0.000008387733
178      -0.000004747247
179      -0.000002634539
180       0.000003935096
181      -0.000005346548
182      -0.000008015045
183       0.000017753961
184       0.000009816263
185      -0.000016068558
186       0.000021205582
187       0.000029585656
188      -0.000009512624
189       0.000006712214
190      -0.000011985397
191      -0.000005897340
192      -0.000011108315
193      -0.000022740451
194       0.000000392838
195       0.000000047352
196      -0.000000066198
197       0.000000103946
198      -0.000000733439
199      -0.000001459367
200      -0.000000934458
201       0.000001861153
202       0.000000159939
203      -0.000000466894
204       0.000000005466
205      -0.000000153239
206       0.000002735539
207      -0.000000563312
208       0.000000601083
209       0.000003575100
210      -0.000003955039
211      -0.000000969220
212       0.000002412444
213      -0.000002296535
214      -0.000000626352
215       0.000000144257
216      -0.000000562392
217       0.000000160250
218      -0.000001044659
219      -0.000000118350
220      -0.000001607162
221       0.000000853306
222      -0.000000814196
223       0.000003737196
224      -0.000002469122
225       0.000001792079
226      -0.000000271501
227       0.000001084344
228      -0.000003660653
229      -0.000000414793
230       0.000003573517
231       0.000003321034
 Sym=     1a
 Ene= -3.20633986649153E+02
 Spin= Alpha
 Occup= 1.000000
  1       0.000000019253
  2       0.000000023938
  3       0.000000038982
  4       0.000000088267
  5       0.000000096259
  6       0.000000070711
  7      -0.000000376389
  8      -0.000000178069
  9      -0.000000224050
 10       0.000000478067
 11      -0.000000830776
 12       0.000001321324
 13      -0.000002002728
 14       0.000002422673
 15      -0.000000820208
 16      -0.000001396847
 17       0.000000124254
 18      -0.000000161968
 19      -0.334059593332
 20       0.050480236701
 21      -0.124607114833
 22      -0.444922048779
 23       0.067232814585
 24      -0.165959899533
 25      -0.279079909458
 26       0.042172130901
 27      -0.104099132661
 28      -0.013186322683
 29       0.001992676962
 30      -0.004919224284
 31      -0.005292979061
 32       0.000799722099
 33      -0.001973185170
 34       0.003634578620
 35      -0.000549038956
 36       0.001353666768
 37      -0.002213859606
 38       0.000334172780
 39      -0.000822152548
 40       0.001391575598
 41      -0.000209503928
 42       0.000513015289
 43      -0.000890896601
 44       0.000133457195
 45      -0.000324495538
 46       0.000511179215
 47      -0.000077113589
 48       0.000185206577
 49      -0.000177515001
 50       0.000026654429
 51      -0.000067440349
 52       0.000045949780
 53      -0.000006771111
 54       0.000018203373
 55      -0.000000179644
 56      -0.000000110739
 57      -0.000000022758
 58       0.000000166461
 59      -0.000000042827
 60       0.000000639447
 61      -0.000000507965
 62       0.000001361388
 63      -0.000002429316
 64       0.000000492057
 65      -0.000002064501
 66       0.000001270356
 67      -0.000003962577
 68       0.000007351183
 69      -0.000001403014
 70       0.000004653666
 71      -0.000003088118
 72       0.000009217331
 73      -0.000016968793
 74       0.000003240124
 75      -0.000009473062
 76       0.000006311479
 77      -0.000018814935
 78       0.000034586124
 79      -0.000006621516
 80       0.000015637757
 81      -0.000010383736
 82       0.000031219834
 83      -0.000057160926
 84       0.000010987172
 85      -0.000011327530
 86       0.000007779225
 87      -0.000024130191
 88       0.000043315472
 89      -0.000007721030
 90      -0.000003356856
 91       0.000002338807
 92      -0.000007080294
 93       0.000012530783
 94      -0.000002690524
 95       0.000002661636
 96      -0.000001904934
 97       0.000005508457
 98      -0.000010112403
 99       0.000001808249
100      -0.000001214070
101      -0.000001610243
102       0.000001765401
103       0.000001207022
104       0.000001514454
105      -0.000000510089
106       0.000001181360
107       0.000007732283
108       0.000009770831
109      -0.000010995127
110      -0.000007538182
111      -0.000009266993
112       0.000002965736
113      -0.000007481181
114      -0.000008192379
115      -0.000011061488
116       0.000012800033
117       0.000006737034
118       0.000009937474
119      -0.000001914754
120       0.000009871810
121      -0.000000268203
122       0.000000374755
123      -0.000000586966
124       0.000004104431
125       0.000008030219
126       0.000004753513
127      -0.000010122198
128       0.000019831522
129      -0.000001011739
130      -0.000001804304
131      -0.000001699668
132       0.000006246492
133       0.000010098972
134       0.000009795115
135       0.000008469461
136       0.000008221014
137       0.000009714677
138       0.000010131232
139       0.000010717733
140       0.000011911614
141       0.000000742186
142       0.000002821045
143       0.000005076369
144      -0.000002061852
145       0.000003045908
146      -0.000003067774
147      -0.000012841036
148      -0.000019420627
149       0.000006124081
150      -0.000013113691
151       0.000005757064
152      -0.000003460601
153      -0.000008064206
154       0.000009131428
155      -0.000010777011
156      -0.000007315124
157      -0.000002324716
158      -0.000000225152
159       0.000000314376
160      -0.000000491591
161       0.000003417156
162       0.000006619756
163       0.000003761741
164      -0.000008505550
165       0.000017512864
166      -0.000001113031
167       0.000002001001
168       0.000000543020
169       0.000006731593
170      -0.000011145902
171      -0.000002783341
172       0.000009658839
173      -0.000009374777
174      -0.000000496186
175       0.000008951258
176      -0.000014663037
177      -0.000003599737
178      -0.000002275217
179      -0.000001261688
180       0.000002081889
181      -0.000002882580
182      -0.000004280819
183       0.000009580453
184       0.000004591281
185      -0.000006406196
186       0.000008922105
187       0.000017966118
188      -0.000005920322
189       0.000001785939
190      -0.000004881411
191      -0.000005954728
192      -0.000006617658
193      -0.000010871441
194       0.000004610823
195       0.000000513224
196      -0.000000717041
197       0.000001122938
198      -0.000007848835
199      -0.000015348333
200      -0.000009081325
201       0.000019406018
202      -0.000034777957
203      -0.000004988781
204       0.000000875450
205      -0.000001085110