[Molden Format]
[Title]
 Molden file created by orca_2mkl for BaseName=/home/smirnovaanastasia2304_2125/_scratch/O2_cc/Pr_O2_cc

[Atoms] AU
Pr   1  59         -0.1624011742        -0.6730297420        -1.6667252220 
O    2   8         -1.8295534744         2.9899133507        -0.5425176963 
O    3   8          3.1668918724        -0.6552738753        -0.6687438432 
[GTO]
  1 0
s   6 1.0 
   961538.7552820001      1791.2119698187
   427350.5579030000      -464.6976799751
   189933.5812900000      1059.7453352467
    84414.9250180000       265.3867821965
    37517.7444520000       670.9029254951
    16674.5530900000       532.5812088880
s   1 1.0 
     7410.9124840000       569.2641778037
s   1 1.0 
     3293.7388820000       309.8681698966
s   1 1.0 
     1463.8839480000       168.6708675443
s   1 1.0 
      650.6150880000        91.8127911014
s   1 1.0 
      289.1622610000        49.9765533033
s   1 1.0 
      128.5165610000        27.2037900206
s   1 1.0 
       57.1184710000        14.8078675854
s   1 1.0 
       25.3859870000         8.0603821431
s   1 1.0 
       11.2826610000         4.3875163396
s   1 1.0 
        5.0145160000         2.3882613934
s   1 1.0 
        2.2286740000         1.3000049386
s   1 1.0 
        0.9905220000         0.7076331774
s   1 1.0 
        0.4402320000         0.3851867133
s   1 1.0 
        0.1956590000         0.2096693575
s   1 1.0 
        0.0869590000         0.1141289955
s   1 1.0 
        0.0386490000         0.0621246262
s   1 1.0 
        0.0171770000         0.0338158711
p   5 1.0 
    12926.8771060000      2243.4411625356
     5170.7508420000       970.3267113047
     2068.3003370000      1541.0095733413
      827.3201350000      1562.6929899323
      330.9280540000      1504.3140347474
p   1 1.0 
      132.3712220000       640.0030748661
p   1 1.0 
       52.9484890000       203.5902856660
p   1 1.0 
       21.1793950000        64.7637556472
p   1 1.0 
        8.4717580000        20.6018876605
p   1 1.0 
        3.3887030000         6.5536308020
p   1 1.0 
        1.3554810000         2.0847639131
p   1 1.0 
        0.5421930000         0.6631816039
p   1 1.0 
        0.2168770000         0.2109633238
p   1 1.0 
        0.0867510000         0.0671093759
p   1 1.0 
        0.0347000000         0.0213477413
p   1 1.0 
        0.0138800000         0.0067908935
d   4 1.0 
      877.6091640000      3337.5212855414
      319.1306050000      3244.8563107122
      116.0474930000      3005.5140400133
       42.1990880000      1583.5704970499
d   1 1.0 
       15.3451230000       339.1706298333
d   1 1.0 
        5.5800450000        57.7545309127
d   1 1.0 
        2.0291070000         9.8345330570
d   1 1.0 
        0.7378570000         1.6746399082
d   1 1.0 
        0.2683120000         0.2851610810
d   1 1.0 
        0.0975680000         0.0485576922
d   1 1.0 
        0.0354790000         0.0082683715
d   1 1.0 
        0.0129020000         0.0014080559
f   4 1.0 
       20.9298010000       586.8186602000
        6.9766000000       151.0188164213
        2.3255330000        19.5194371871
        0.7751780000         1.2419682566
f   1 1.0 
        0.2583930000         0.2714136926
f   1 1.0 
        0.0861310000         0.0229144232

  2 0
s   6 1.0 
    27032.3826310000         1.4645050749
     4052.3871392000         1.8244031008
      922.3272271000         2.8547160967
      261.2407098900         4.3654874290
       85.3546413500         5.8940772662
       31.0350352400         6.2963020147
s   1 1.0 
       12.2608607300         4.6698272139
s   1 1.0 
        4.9987076000         2.3826123703
s   1 1.0 
        1.1703108200         0.8019291632
s   1 1.0 
        0.4647474100        -0.4011648063
s   1 1.0 
        0.1850453600         0.2010799377
p   4 1.0 
       63.2749548000         3.0898340730
       14.6270493800         3.3923831935
        4.4501223500         2.9482801524
        1.5275799600         1.7113350234
p   1 1.0 
        0.5293511800         0.6436057935
p   1 1.0 
        0.1747842100         0.1610897223
d   1 1.0 
        2.3140000000        12.3767310624
d   1 1.0 
        0.6450000000         1.3234257612
f   1 1.0 
        1.4280000000        12.7097950062

  3 0
s   6 1.0 
    27032.3826310000         1.4645050749
     4052.3871392000         1.8244031008
      922.3272271000         2.8547160967
      261.2407098900         4.3654874290
       85.3546413500         5.8940772662
       31.0350352400         6.2963020147
s   1 1.0 
       12.2608607300         4.6698272139
s   1 1.0 
        4.9987076000         2.3826123703
s   1 1.0 
        1.1703108200         0.8019291632
s   1 1.0 
        0.4647474100        -0.4011648063
s   1 1.0 
        0.1850453600         0.2010799377
p   4 1.0 
       63.2749548000         3.0898340730
       14.6270493800         3.3923831935
        4.4501223500         2.9482801524
        1.5275799600         1.7113350234
p   1 1.0 
        0.5293511800         0.6436057935
p   1 1.0 
        0.1747842100         0.1610897223
d   1 1.0 
        2.3140000000        12.3767310624
d   1 1.0 
        0.6450000000         1.3234257612
f   1 1.0 
        1.4280000000        12.7097950062

[5D]
[7F]
[9G]
[MO]
 Sym=     1a
 Ene= -1.54901168536107E+03
 Spin= Alpha
 Occup= 1.000000
  1       0.079152515507
  2       0.092431873539
  3       0.170065489630
  4       0.298778937771
  5       0.347532370093
  6       0.177931456588
  7       0.011288641543
  8       0.003101114933
  9      -0.002252588272
 10       0.001480300995
 11      -0.001000383769
 12       0.000672111606
 13      -0.000444362638
 14       0.000291395933
 15      -0.000184502668
 16       0.000106414139
 17      -0.000042758211
 18       0.000011484678
 19      -0.000000116501
 20      -0.000000737049
 21      -0.000000360758
 22       0.000000776463
 23       0.000000592541
 24       0.000000492991
 25      -0.000000447579
 26      -0.000000466483
 27      -0.000000339458
 28       0.000000608154
 29       0.000000496389
 30       0.000000400419
 31      -0.000000884320
 32      -0.000000661919
 33      -0.000000555755
 34       0.000001349442
 35       0.000001027561
 36       0.000000855791
 37      -0.000002107648
 38      -0.000001792204
 39      -0.000001419458
 40       0.000002479969
 41       0.000003097213
 42       0.000002107352
 43      -0.000000890914
 44      -0.000004236328
 45      -0.000002138567
 46       0.000000143604
 47       0.000005932791
 48       0.000002666615
 49       0.000000561148
 50      -0.000000723660
 51      -0.000000153170
 52      -0.000000183334
 53       0.000000123397
 54       0.000000000052
 55      -0.000000163532
 56       0.000000041286
 57       0.000000070991
 58       0.000000053080
 59      -0.000000163136
 60       0.000000217274
 61      -0.000000072924
 62      -0.000000098243
 63      -0.000000088004
 64       0.000000191750
 65      -0.000000431513
 66       0.000000200214
 67       0.000000178956
 68       0.000000263941
 69      -0.000000321082
 70       0.000000784489
 71      -0.000000382301
 72      -0.000000328082
 73      -0.000000499030
 74       0.000000559078
 75      -0.000001422865
 76       0.000000576671
 77       0.000000656913
 78       0.000000684634
 79      -0.000001124489
 80       0.000001729060
 81      -0.000000211363
 82      -0.000001033990
 83       0.000000062793
 84       0.000001843530
 85      -0.000002567091
 86      -0.000000095278
 87       0.000001660724
 88      -0.000000741843
 89      -0.000003181330
 90       0.000000022626
 91       0.000000231756
 92      -0.000000167738
 93       0.000000487087
 94       0.000000226381
 95       0.000000027718
 96      -0.000000077920
 97       0.000000030978
 98      -0.000000151513
 99      -0.000000035650
100      -0.000000174846
101      -0.000000086686
102      -0.000000056345
103       0.000000113230
104      -0.000000062612
105      -0.000000337614
106       0.000000032617
107       0.000000708078
108       0.000000155739
109       0.000000376497
110      -0.000000089704
111       0.000000452702
112       0.000001402928
113      -0.000000283574
114      -0.000001168122
115      -0.000000146731
116      -0.000000728144
117      -0.000000056291
118      -0.000000925131
119      -0.000002422070
120       0.000000578187
121       0.000000118437
122      -0.000000552584
123       0.000001055283
124      -0.000003316833
125      -0.000006460930
126      -0.000009719306
127      -0.000000229735
128       0.000000601177
129       0.000000197562
130       0.000001164585
131      -0.000002874288
132      -0.000000924873
133      -0.000000817777
134       0.000002548449
135       0.000000883906
136       0.000000088286
137       0.000000036783
138      -0.000000102224
139       0.000000127057
140       0.000000123601
141      -0.000000676170
142      -0.000000308554
143       0.000000732440
144      -0.000000934058
145      -0.000001013210
146       0.000000024855
147      -0.000000000274
148       0.000000015128
149       0.000000025679
150       0.000000022010
151       0.000000036893
152      -0.000000032188
153      -0.000000006074
154       0.000000049218
155      -0.000000159426
156       0.000000143171
157      -0.000003915581
158      -0.000006572991
159      -0.000000568875
160       0.000000099475
161      -0.000000125188
162      -0.000000661969
163      -0.000000376135
164      -0.000000363220
165       0.000000185091
166       0.000000705564
167       0.000000367095
168      -0.000000216109
169       0.000000227332
170      -0.000000002905
171       0.000000408768
172      -0.000000057158
173       0.000000767462
174      -0.000000818474
175       0.000000015139
176      -0.000001471283
177       0.000000191768
178      -0.000000635657
179      -0.000000612296
180       0.000000008260
181       0.000000866698
182      -0.000000003741
183      -0.000001193652
184       0.000000026817
 Sym=     1a
 Ene= -2.53621262147434E+02
 Spin= Alpha
 Occup= 1.000000
  1       0.028911562192
  2       0.037022636018
  3       0.069306088612
  4       0.143604026665
  5       0.207159743094
  6       0.099437051961
  7      -0.447225475591
  8      -0.618115999790
  9      -0.112974857769
 10      -0.003580402839
 11       0.002969613545
 12      -0.002128916742
 13       0.001577175191
 14      -0.001083010990
 15       0.000692104350
 16      -0.000400764114
 17       0.000161665901
 18      -0.000043522534
 19      -0.000045925207
 20       0.000001814879
 21      -0.000012845011
 22      -0.000065211057
 23       0.000003559901
 24      -0.000017804780
 25      -0.000051525899
 26       0.000003735174
 27      -0.000013659575
 28      -0.000003693961
 29       0.000001302972
 30      -0.000000518726
 31      -0.000000197798
 32       0.000001147174
 33       0.000000448544
 34      -0.000003994373
 35      -0.000003377118
 36      -0.000002681294
 37       0.000007074566
 38       0.000006327987
 39       0.000004902634
 40      -0.000008771168
 41      -0.000011539615
 42      -0.000007712204
 43       0.000003872208
 44       0.000016335715
 45       0.000008376425
 46       0.000000016718
 47      -0.000022253277
 48      -0.000009837015
 49      -0.000002335651
 50       0.000002651978
 51       0.000000478254
 52       0.000000755911
 53      -0.000000446303
 54       0.000000027427
 55       0.000021647023
 56      -0.000005277729
 57      -0.000010068694
 58      -0.000005842746
 59       0.000021391586
 60      -0.000002259000
 61       0.000001548608
 62       0.000000724594
 63       0.000002254691
 64      -0.000001175087
 65       0.000001094060
 66      -0.000000968347
 67      -0.000000388132
 68      -0.000001308216
 69       0.000000269851
 70      -0.000003351310
 71       0.000001870033
 72       0.000001312961
 73       0.000002529903
 74      -0.000002141676
 75       0.000005593456
 76      -0.000002334728
 77      -0.000002569169
 78      -0.000002788939
 79       0.000004342312
 80      -0.000006982406
 81       0.000001103950
 82       0.000004050004
 83       0.000000211570
 84      -0.000007203931
 85       0.000009630386
 86       0.000000424724
 87      -0.000006274350
 88       0.000002922358
 89       0.000011992839
 90      -0.000000049867
 91      -0.000000894798
 92       0.000000624617
 93      -0.000001873122
 94      -0.000000828587
 95      -0.000000113499
 96       0.000000299536
 97      -0.000000115737
 98       0.000000582325
 99       0.000000128039
100       0.000000797082
101       0.000000529866
102       0.000000188029
103      -0.000000662355
104       0.000000295881
105       0.000001619276
106      -0.000000212826
107      -0.000003004577
108      -0.000000785608
109      -0.000001510190
110       0.000000582313
111      -0.000001830774
112      -0.000005951289
113       0.000001155375
114       0.000004484881
115       0.000000590187
116       0.000002775199
117       0.000000182485
118       0.000003532149
119       0.000009290839
120      -0.000002218905
121      -0.000000384861
122       0.000001943146
123      -0.000003911669
124       0.000012607660
125       0.000024316785
126       0.000036380297
127       0.000000902855
128      -0.000002378387
129      -0.000000783345
130      -0.000004430410
131       0.000010969512
132       0.000003533797
133       0.000002992937
134      -0.000009404161
135      -0.000003269075
136      -0.000000369297
137      -0.000000157554
138       0.000000433103
139      -0.000000543517
140      -0.000000518214
141       0.000002646899
142       0.000001215609
143      -0.000002892454
144       0.000003700906
145       0.000003960003
146      -0.000000128324
147       0.000000011841
148      -0.000000087841
149      -0.000000131522
150      -0.000000120994
151      -0.000000204073
152       0.000000152516
153       0.000000033681
154      -0.000000287049
155       0.000000728942
156      -0.000000504851
157       0.000014953792
158       0.000023804283
159       0.000002157714
160      -0.000000391517
161       0.000000468553
162       0.000002919299
163       0.000001451622
164       0.000001510212
165      -0.000000270736
166      -0.000002675219
167      -0.000001263663
168       0.000000859438
169      -0.000000909455
170       0.000000011696
171      -0.000001632063
172       0.000000220509
173      -0.000002865920
174       0.000003028429
175      -0.000000059779
176       0.000005466285
177      -0.000000754034
178       0.000002392795
179       0.000002303957
180      -0.000000031692
181      -0.000003258262
182       0.000000012342
183       0.000004488069
184      -0.000000102975
 Sym=     1a
 Ene= -2.27106149162970E+02
 Spin= Alpha
 Occup= 1.000000
  1       0.000003391805
  2       0.000004335036
  3       0.000008210299
  4       0.000016756608
  5       0.000025029589
  6       0.000010106080
  7      -0.000053901848
  8      -0.000072639045
  9      -0.000006892457
 10      -0.000010137395
 11       0.000018787184
 12      -0.000023292372
 13       0.000019316262
 14       0.000010981893
 15      -0.000063302155
 16       0.000149844107
 17      -0.000031443272
 18       0.000007473533
 19       0.272120857877
 20      -0.217127849640
 21      -0.014079033249
 22       0.374320821995
 23      -0.298673822335
 24      -0.019366510149
 25       0.241586225510
 26      -0.192759473741
 27      -0.012497258864
 28       0.014160216340
 29      -0.011304931346
 30      -0.000735370299
 31       0.004235494262
 32      -0.003370377234
 33      -0.000215182263
 34      -0.002954723071
 35       0.002342119008
 36       0.000146189988
 37       0.001801635150
 38      -0.001414201142
 39      -0.000083173933
 40      -0.001152161446
 41       0.000893715264
 42       0.000048724679
 43       0.000732051027
 44      -0.000564350632
 45      -0.000029612997
 46      -0.000235438220
 47       0.000267573728
 48       0.000047058285
 49       0.000107984532
 50      -0.000110163107
 51      -0.000016015324
 52      -0.000036249054
 53       0.000035750530
 54       0.000004842842
 55      -0.000008099557
 56       0.000003213604
 57      -0.000002919010
 58       0.000013030724
 59      -0.000010813174
 60       0.000000973657
 61       0.000001191045
 62      -0.000000200603
 63       0.000001030564
 64       0.000002973171
 65      -0.000000241254
 66      -0.000005872742
 67       0.000002513506
 68      -0.000010147117
 69      -0.000006317780
 70      -0.000000914317
 71       0.000014149193
 72      -0.000006998919
 73       0.000026734580
 74       0.000012198144
 75      -0.000000546012
 76      -0.000027611219
 77       0.000015842278
 78      -0.000053680333
 79      -0.000026142957
 80       0.000006735140
 81       0.000039340886
 82      -0.000026966847
 83       0.000078696638
 84       0.000043993067
 85      -0.000024062200
 86       0.000026311072
 87       0.000001978323
 88       0.000043464994
 89      -0.000003578871
 90       0.000004518262
 91      -0.000015407229
 92       0.000005544297
 93      -0.000028528049
 94      -0.000008958255
 95      -0.000001440874
 96       0.000004715207
 97      -0.000001653679
 98       0.000008708865
 99       0.000002675344
100       0.000001187183
101       0.000003539611
102      -0.000001951374
103      -0.000005501541
104      -0.000002529782
105       0.000001170485
106       0.000001220897
107       0.000002757502
108      -0.000018667114
109       0.000015275453
110       0.000030876974
111       0.000016888855
112       0.000007156219
113      -0.000008986217
114      -0.000007914845
115       0.000003753129
116      -0.000007988879
117      -0.000004458029
118      -0.000007474671
119      -0.000016382579
120       0.000001206914
121       0.000001253008
122      -0.000006570780
123       0.000013504584
124      -0.000044410282
125      -0.000058931309
126      -0.000000746676
127      -0.000004822946
128       0.000012154394
129       0.000003948741
130       0.000022388954
131      -0.000053288288
132      -0.000016930159
133       0.000018697324
134      -0.000029416127
135      -0.000007416715
136       0.000002484959
137       0.000001503469
138      -0.000003322620
139       0.000004720362
140       0.000003800450
141      -0.000015638992
142      -0.000008264620
143       0.000018732719
144      -0.000025345323
145      -0.000023755163
146       0.000001071645
147       0.000000118927
148       0.000000425490
149       0.000001381754
150       0.000000684112
151       0.000000989665
152      -0.000001728861
153       0.000001863409
154      -0.000009726053
155       0.000019198980
156      -0.000041643204
157      -0.000033544267
158      -0.000174021693
159       0.000011638690
160       0.000000772703
161       0.000003810170
162       0.000009418480
163       0.000001280591
164       0.000003324200
165       0.000083288549
166      -0.000003339296
167       0.000023332381
168       0.000003996564
169      -0.000005970600
170      -0.000000437510
171      -0.000008922927
172      -0.000001516677
173      -0.000010830226
174       0.000014446599
175       0.000000130269
176       0.000023618908
177       0.000001177379
178       0.000011324884
179       0.000009121639
180       0.000000620111
181      -0.000016265845
182      -0.000001544346
183       0.000020409113
184       0.000003771362
 Sym=     1a
 Ene= -2.27101697630622E+02
 Spin= Alpha
 Occup= 1.000000
  1       0.000002657359
  2       0.000003344938
  3       0.000006575008
  4       0.000012551688
  5       0.000020838191
  6       0.000004723016
  7      -0.000033719546
  8      -0.000064294479
  9       0.000003830185
 10      -0.000044020317
 11       0.000080102420
 12      -0.000121788126
 13       0.000181189989
 14      -0.000219956521
 15       0.000109990763
 16       0.000185776452
 17      -0.000092432515
 18       0.000020966877
 19       0.197490017656
 20       0.237011813757
 21       0.161924391091
 22       0.271662869557
 23       0.326027671993
 24       0.222739366955
 25       0.175320643064
 26       0.210399688221
 27       0.143744758552
 28       0.010269926284
 29       0.012333897631
 30       0.008424208247
 31       0.003074924961
 32       0.003677671775
 33       0.002515729815
 34      -0.002140455157
 35      -0.002547494798
 36      -0.001745790743
 37       0.001298933689
 38       0.001526674302
 39       0.001051146853
 40      -0.000816676554
 41      -0.000943690557
 42      -0.000654031778
 43       0.000508238819
 44       0.000579827797
 45       0.000403959736
 46      -0.000131326057
 47      -0.000306683016
 48      -0.000172675278
 49       0.000073750993
 50       0.000128904647
 51       0.000077997853
 52      -0.000025081984
 53      -0.000041210258
 54      -0.000025384739
 55      -0.000003000962
 56       0.000010270039
 57       0.000002523718
 58       0.000010439587
 59       0.000010093547
 60      -0.000000188363
 61      -0.000001240085
 62      -0.000000919673
 63      -0.000000031648
 64      -0.000002512176
 65       0.000005211694
 66      -0.000002906724
 67      -0.000002574573
 68      -0.000003170504
 69       0.000002989185
 70      -0.000011913666
 71       0.000008099038
 72       0.000004847126
 73       0.000010427777
 74      -0.000005631635
 75       0.000024353424
 76      -0.000015413068
 77      -0.000011154774
 78      -0.000018260155
 79       0.000012165404
 80      -0.000037241934
 81       0.000020745486
 82       0.000018854613
 83       0.000022162889
 84      -0.000021067015
 85      -0.000016261035
 86       0.000030884978
 87      -0.000008305068
 88       0.000057984102
 89       0.000008144845
 90       0.000013196078
 91      -0.000012152150
 92      -0.000003873755
 93      -0.000017311021
 94       0.000003114646
 95      -0.000004046706
 96       0.000003724281
 97       0.000001228776
 98       0.000005248985
 99      -0.000000931280
100       0.000003036728
101       0.000001873374
102       0.000000777779
103      -0.000003327018
104       0.000000705703
105       0.000006299137
106       0.000000401211
107      -0.000022295080
108      -0.000008400364
109      -0.000008250445
110       0.000009788769
111      -0.000007725165
112      -0.000040058471
113       0.000004538298
114       0.000006919853
115      -0.000002332632
116       0.000005652427
117       0.000008540723
118       0.000006380066
119       0.000010299887
120      -0.000006984195
121      -0.000000793428
122       0.000004147443
123      -0.000008490403
124       0.000027987446
125       0.000042587622
126       0.000029467756
127       0.000004569768
128      -0.000006505076
129      -0.000001529772
130      -0.000017997299
131       0.000029963121
132       0.000007931835
133       0.000002488273
134       0.000015138132
135       0.000007383087
136      -0.000002348313
137      -0.000000804654
138       0.000001059138
139      -0.000000842991
140      -0.000004131453
141       0.000011735289
142       0.000004775338
143      -0.000007674601
144       0.000008446151
145       0.000020079768
146       0.000000155114
147       0.000001002786
148      -0.000000946436
149       0.000001037436
150      -0.000000599069
151      -0.000001686981
152      -0.000002292519
153       0.000001831776
154      -0.000009544485
155       0.000018786620
156      -0.000041023206
157      -0.000035125984
158      -0.000185247998
159       0.000010751686
160       0.000000141739
161       0.000003248652
162       0.000011090913
163      -0.000004226629
164       0.000001499128
165       0.000089408361
166       0.000002195600
167       0.000027498663
168       0.000003981517
169      -0.000004593254
170       0.000000065807
171      -0.000008020120
172       0.000000536382
173      -0.000009449605
174       0.000013209647
175       0.000001101633
176       0.000019994045
177       0.000002551344
178       0.000009793940
179       0.000010403911
180      -0.000000420942
181      -0.000013117816
182       0.000001221897
183       0.000019376292
184      -0.000002654989
 Sym=     1a
 Ene= -2.27098660102220E+02
 Spin= Alpha
 Occup= 1.000000
  1       0.000000001295
  2       0.000000001438
  3       0.000000003736
  4       0.000000003968
  5       0.000000014713
  6      -0.000000009603
  7       0.000000015216
  8      -0.000000056808
  9       0.000000032727
 10      -0.000000155687
 11       0.000000282181
 12      -0.000000442393
 13       0.000000697553
 14      -0.000000935068
 15       0.000000617492
 16       0.000000375256
 17      -0.000000299098
 18       0.000000067021
 19      -0.091333188511
 20      -0.134449254959
 21       0.308189866489
 22      -0.125636151227
 23      -0.184945776324
 24       0.423939971301
 25      -0.081074871133
 26      -0.119348257875
 27       0.273574770121
 28      -0.004752254006
 29      -0.006995708669
 30       0.016035728050
 31      -0.001415323973
 32      -0.002083402733
 33       0.004775827028
 34       0.000977039751
 35       0.001438175781
 36      -0.003296920329
 37      -0.000579726285
 38      -0.000853201702
 39       0.001956257266
 40       0.000347809066
 41       0.000511604233
 42      -0.001173654125
 43      -0.000203243960
 44      -0.000298694540
 45       0.000685836955
 46       0.000113150242
 47       0.000166208665
 48      -0.000381081832
 49      -0.000053003042
 50      -0.000078040977
 51       0.000178671795
 52       0.000016839837
 53       0.000024794451
 54      -0.000056774472
 55       0.000006727604
 56       0.000012825285
 57      -0.000002291349
 58      -0.000004402808
 59      -0.000005922547
 60      -0.000001640522
 61      -0.000003448809
 62       0.000000791997
 63       0.000001264682
 64       0.000001506915
 65      -0.000000660065
 66       0.000000841976
 67      -0.000001217691
 68      -0.000000810232
 69       0.000000115455
 70       0.000000997279
 71      -0.000000394598
 72       0.000001280744
 73       0.000000702442
 74      -0.000000412452
 75      -0.000002614358
 76      -0.000001277858
 77      -0.000001761009
 78      -0.000000462021
 79       0.000001596847
 80       0.000004483472
 81       0.000003267152
 82       0.000002289426
 83       0.000000145076
 84      -0.000002997446
 85      -0.000004335554
 86      -0.000002818878
 87      -0.000002152626
 88      -0.000000219766
 89       0.000002602506
 90      -0.000000952243
 91       0.000000277080
 92      -0.000001153101
 93      -0.000000641365
 94       0.000000393644
 95       0.000000347279
 96      -0.000000049922
 97       0.000000381628
 98       0.000000201895
 99      -0.000000152617
100      -0.000000838216
101       0.000000198025
102       0.000000154666
103       0.000000463521
104      -0.000000970255
105       0.000000708487
106      -0.000000099659
107      -0.000002906911
108       0.000002946974
109       0.000002280523
110       0.000002015881
111      -0.000002590022
112       0.000001338541
113       0.000000619031
114       0.000003516321
115      -0.000002438497
116      -0.000003389190
117      -0.000001487543
118       0.000003602066
119      -0.000001663103
120       0.000000256930
121      -0.000000006520
122       0.000000034130
123      -0.000000070000
124       0.000000230371
125       0.000000328098
126       0.000000124624
127      -0.000000644619
128      -0.000001063887
129       0.000002257236
130       0.000001722911
131       0.000003020997
132      -0.000006163375
133      -0.000002961012
134      -0.000004209642
135       0.000009878973
136      -0.000001358778
137       0.000001342173
138      -0.000002149398
139      -0.000001456219
140       0.000000222985
141       0.000004451027
142      -0.000004359827
143       0.000006956546
144       0.000004790540
145      -0.000000663498
146       0.000001486486
147       0.000000855032
148      -0.000002554859
149       0.000001038338
150       0.000002243858
151      -0.000000470337
152       0.000001775272
153       0.000000002764
154      -0.000000014354
155       0.000000028119
156      -0.000000062336
157      -0.000000059406
158      -0.000000311918
159      -0.000000620363
160      -0.000000945735
161       0.000002138460
162       0.000003871602
163       0.000005707595
164      -0.000012952804
165      -0.000003364146
166      -0.000005212230
167       0.000011878539
168      -0.000000273149
169      -0.000000478057
170       0.000000059592
171       0.000000139401
172       0.000000241185
173       0.000004019567
174       0.000007047122
175      -0.000000956238
176      -0.000002243904
177      -0.000003428783
178      -0.000001134714
179       0.000002317443
180       0.000000205811
181       0.000001874756
182      -0.000000590953
183       0.000000859960
184       0.000001222579
 Sym=     1a
 Ene= -5.67122513392201E+01
 Spin= Alpha
 Occup= 1.000000
  1      -0.013280708410
  2      -0.017202797608
  3      -0.032545218774
  4      -0.068435562096
  5      -0.104520860581
  6      -0.048125623165
  7       0.326418390013
  8       0.693405382122
  9      -0.315451824050
 10      -0.950485858589
 11      -0.090109405595
 12      -0.027795419241
 13       0.019130202663
 14      -0.013258246580
 15       0.008722255888
 16      -0.005074144040
 17       0.002057207287
 18      -0.000555395430
 19       0.000180553527
 20      -0.000003292128
 21       0.000052177582
 22       0.000280879863
 23      -0.000004291828
 24       0.000081539991
 25       0.000051817431
 26      -0.000005450645
 27       0.000012975745
 28      -0.000712658382
 29       0.000001900327
 30      -0.000210855892
 31      -0.000438738344
 32       0.000045685376
 33      -0.000110106564
 34      -0.000007586815
 35      -0.000046127733
 36      -0.000022694505
 37       0.000055785860
 38       0.000083704718
 39       0.000053627001
 40      -0.000099461741
 41      -0.000151864249
 42      -0.000096753419
 43       0.000040306093
 44       0.000207043461
 45       0.000103561453
 46       0.000002531495
 47      -0.000281090897
 48      -0.000123567860
 49      -0.000031189068
 50       0.000033555329
 51       0.000005566758
 52       0.000010101447
 53      -0.000005691772
 54       0.000000486285