[Molden Format]
[Title]
 Molden file created by orca_2mkl for BaseName=/home/nikolayandreadi_2125/_scratch/F2_cc/Ho_F2_cc

[Atoms] AU
Ho   1  67         -0.2756902560        -0.3518386602        -1.5127408880 
F    2   9         -1.8823278561         2.8853982674        -0.6244996852 
F    3   9          3.3329572256        -0.8719479841        -0.7407461883 
[GTO]
  1 0
s   6 1.0 
  1243224.0362390000      2430.7883883751
   552544.0161060001      -654.1975952983
   245575.1182690000      1411.8065153980
   109144.4970090000       307.3508470299
    48508.6653370000       841.1959093739
    21559.4068170000       618.6822587502
s   1 1.0 
     9581.9585850000       690.2410900848
s   1 1.0 
     4258.6482600000       375.7196600467
s   1 1.0 
     1892.7325600000       204.5158785436
s   1 1.0 
      841.2144710000       111.3243437065
s   1 1.0 
      373.8730980000        60.5972973132
s   1 1.0 
      166.1658210000        32.9849906635
s   1 1.0 
       73.8514760000        17.9547547325
s   1 1.0 
       32.8228780000         9.7733305173
s   1 1.0 
       14.5879460000         5.3199273619
s   1 1.0 
        6.4835320000         2.8958018167
s   1 1.0 
        2.8815700000         1.5762749461
s   1 1.0 
        1.2806980000         0.8580155144
s   1 1.0 
        0.5691990000         0.4670444209
s   1 1.0 
        0.2529770000         0.2542265306
s   1 1.0 
        0.1124340000         0.1383831902
s   1 1.0 
        0.0499710000         0.0753266446
s   1 1.0 
        0.0222090000         0.0410021703
p   5 1.0 
    17047.2980980000      3781.2112013816
     6818.9192390000      1471.3063683664
     2727.5676960000      2326.2798005570
     1091.0270780000      2234.2132780884
      436.4108310000      2107.4020968708
p   1 1.0 
      174.5643330000       904.4498260556
p   1 1.0 
       69.8257330000       287.7129878901
p   1 1.0 
       27.9302930000        91.5238862028
p   1 1.0 
       11.1721170000        29.1145064205
p   1 1.0 
        4.4688470000         9.2615664136
p   1 1.0 
        1.7875390000         2.9461814806
p   1 1.0 
        0.7150160000         0.9372054126
p   1 1.0 
        0.2860060000         0.2981322914
p   1 1.0 
        0.1144020000         0.0948379394
p   1 1.0 
        0.0457610000         0.0301688997
p   1 1.0 
        0.0183040000         0.0095967150
d   4 1.0 
     1232.4390880000      5979.7836619149
      448.1596690000      5676.5811931057
      162.9671520000      5311.3346199687
       59.2607830000      2889.9578560975
d   1 1.0 
       21.5493750000       614.4418263873
d   1 1.0 
        7.8361370000       104.6281674848
d   1 1.0 
        2.8495040000        17.8162503928
d   1 1.0 
        1.0361830000         3.0337786695
d   1 1.0 
        0.3767940000         0.5165971977
d   1 1.0 
        0.1370160000         0.0879670103
d   1 1.0 
        0.0498240000         0.0149791654
d   1 1.0 
        0.0181180000         0.0025507214
f   4 1.0 
       35.5734580000      1886.2962682422
       11.8578190000       519.5575878865
        3.9526060000        65.2635019256
        1.3175350000         3.8546197454
f   1 1.0 
        0.4391780000         0.8952439126
f   1 1.0 
        0.1463930000         0.0755824175

  2 0
s   6 1.0 
    35479.1004410000         1.9229128581
     5318.4728983000         2.2734773358
     1210.4810975000         3.4747482552
      342.8551814000         5.2879612972
      112.0194318100         7.1666332516
       40.7147402500         7.7556346254
s   1 1.0 
       16.0396781100         5.7122450312
s   1 1.0 
        6.5038186700         2.9025947842
s   1 1.0 
        1.5440477500         0.9872011154
s   1 1.0 
        0.6122345300        -0.4932856223
s   1 1.0 
        0.2402798000         0.2445952611
p   4 1.0 
       80.2339004800         4.2755032106
       18.5940107400         4.7314752302
        5.6867902700         4.0864798013
        1.9511006300         2.2989954518
p   1 1.0 
        0.6697021100         0.8635593126
p   1 1.0 
        0.2165130000         0.2105208234
d   1 1.0 
        3.1070000000        20.7284714039
d   1 1.0 
        0.8550000000         2.1672588463
f   1 1.0 
        1.9170000000        24.6547062912

  3 0
s   6 1.0 
    35479.1004410000         1.9229128581
     5318.4728983000         2.2734773358
     1210.4810975000         3.4747482552
      342.8551814000         5.2879612972
      112.0194318100         7.1666332516
       40.7147402500         7.7556346254
s   1 1.0 
       16.0396781100         5.7122450312
s   1 1.0 
        6.5038186700         2.9025947842
s   1 1.0 
        1.5440477500         0.9872011154
s   1 1.0 
        0.6122345300        -0.4932856223
s   1 1.0 
        0.2402798000         0.2445952611
p   4 1.0 
       80.2339004800         4.2755032106
       18.5940107400         4.7314752302
        5.6867902700         4.0864798013
        1.9511006300         2.2989954518
p   1 1.0 
        0.6697021100         0.8635593126
p   1 1.0 
        0.2165130000         0.2105208234
d   1 1.0 
        3.1070000000        20.7284714039
d   1 1.0 
        0.8550000000         2.1672588463
f   1 1.0 
        1.9170000000        24.6547062912

[5D]
[7F]
[9G]
[MO]
 Sym=     1a
 Ene= -2.05117016850214E+03
 Spin= Alpha
 Occup= 1.000000
  1       0.092130478760
  2       0.101539518528
  3       0.176449250512
  4       0.300456411229
  5       0.336615713640
  6       0.168808902534
  7       0.009477915892
  8       0.003321940561
  9      -0.002418150961
 10       0.001599021401
 11      -0.001074431196
 12       0.000719700576
 13      -0.000476393985
 14       0.000315524997
 15      -0.000209899160
 16       0.000131943951
 17      -0.000049756200
 18       0.000012844156
 19      -0.000000037388
 20      -0.000000053384
 21      -0.000000032099
 22       0.000000107986
 23       0.000000149554
 24       0.000000090782
 25      -0.000000102471
 26      -0.000000140379
 27      -0.000000085516
 28       0.000000205221
 29       0.000000278946
 30       0.000000170361
 31      -0.000000361435
 32      -0.000000490130
 33      -0.000000299566
 34       0.000000619258
 35       0.000000839405
 36       0.000000513111
 37      -0.000001109961
 38      -0.000001506935
 39      -0.000000920677
 40       0.000001924824
 41       0.000002620804
 42       0.000001599683
 43      -0.000002984324
 44      -0.000004059352
 45      -0.000002478554
 46       0.000006294755
 47       0.000008602874
 48       0.000005244585
 49      -0.000001154000
 50      -0.000001578837
 51      -0.000000962170
 52       0.000000214267
 53       0.000000294946
 54       0.000000179386
 55      -0.000000020359
 56       0.000000001604
 57       0.000000004292
 58       0.000000009182
 59      -0.000000026918
 60       0.000000155583
 61      -0.000000030970
 62      -0.000000056811
 63      -0.000000055085
 64       0.000000161580
 65      -0.000000360175
 66       0.000000072077
 67       0.000000131895
 68       0.000000127150
 69      -0.000000373370
 70       0.000000744322
 71      -0.000000144697
 72      -0.000000267141
 73      -0.000000265714
 74       0.000000781833
 75      -0.000001460929
 76       0.000000279538
 77       0.000000519472
 78       0.000000523409
 79      -0.000001544659
 80       0.000002347888
 81      -0.000000434208
 82      -0.000000815199
 83      -0.000000852755
 84       0.000002518787
 85      -0.000006161458
 86       0.000001111595
 87       0.000002101559
 88       0.000002261315
 89      -0.000006678246
 90       0.000000595345
 91      -0.000000142361
 92      -0.000000248525
 93      -0.000000191870
 94       0.000000561030
 95      -0.000000063725
 96       0.000000019031
 97       0.000000031943
 98       0.000000017023
 99      -0.000000050604
100      -0.000000124232
101      -0.000000056226
102      -0.000000064231
103       0.000000021520
104      -0.000000094365
105      -0.000000283667
106       0.000000090970
107       0.000000650786
108       0.000000295460
109       0.000000338965
110      -0.000000114487
111       0.000000503524
112       0.000001499929
113      -0.000000480905
114      -0.000001922320
115      -0.000000892381
116      -0.000001014634
117       0.000000365147
118      -0.000001560599
119      -0.000004548923
120       0.000001459545
121       0.000000164834
122      -0.000000758255
123       0.000001435034
124      -0.000004139792
125      -0.000008068206
126      -0.000015247821
127      -0.000000308671
128       0.000000635123
129       0.000000176052
130       0.000001364091
131      -0.000002816740
132      -0.000000782106
133      -0.000002163549
134       0.000005231412
135       0.000001553563
136       0.000000143213
137       0.000000029993
138      -0.000000108175
139       0.000000107053
140       0.000000191170
141      -0.000000803913
142      -0.000000259842
143       0.000000646723
144      -0.000000774034
145      -0.000001175149
146       0.000000083411
147      -0.000000038252
148       0.000000086239
149       0.000000063346
150       0.000000071865
151       0.000000159505
152      -0.000000036473
153       0.000000165524
154      -0.000000761176
155       0.000001439580
156      -0.000004137722
157      -0.000008038344
158      -0.000015191082
159       0.000000709047
160      -0.000000096323
161       0.000000154092
162      -0.000003113008
163       0.000000418305
164      -0.000000678410
165       0.000005689813
166      -0.000000433221
167       0.000001375774
168       0.000000151241
169      -0.000000099104
170      -0.000000009089
171      -0.000000209013
172       0.000000092408
173      -0.000000842034
174       0.000000606547
175      -0.000000026464
176       0.000001349182
177      -0.000000493302
178       0.000000078266
179       0.000000108727
180      -0.000000011771
181      -0.000000085624
182       0.000000018460
183       0.000000160631
184      -0.000000066832
 Sym=     1a
 Ene= -3.48376523092397E+02
 Spin= Alpha
 Occup= 1.000000
  1       0.034861975324
  2       0.042443625605
  3       0.074644694057
  4       0.149987628674
  5       0.203678256064
  6       0.073948862918
  7      -0.480909214021
  8      -0.593388894706
  9      -0.089939075382
 10      -0.004508732509
 11       0.003977207151
 12      -0.002809989045
 13       0.001997250221
 14      -0.001367454090
 15       0.000917131176
 16      -0.000579556947
 17       0.000219001639
 18      -0.000056606619
 19      -0.000002981557
 20      -0.000004113436
 21      -0.000002499541
 22      -0.000004768568
 23      -0.000006561116
 24      -0.000003990470
 25      -0.000003758824
 26      -0.000005171201
 27      -0.000003145230
 28       0.000000211005
 29       0.000000295581
 30       0.000000178883
 31       0.000000658076
 32       0.000000881764
 33       0.000000541055
 34      -0.000002376032
 35      -0.000003218030
 36      -0.000001967649
 37       0.000004710701
 38       0.000006395763
 39       0.000003907491
 40      -0.000008353103
 41      -0.000011378409
 42      -0.000006944141
 43       0.000013197200
 44       0.000017961322
 45       0.000010964762
 46      -0.000027707706
 47      -0.000037873090
 48      -0.000023087498
 49       0.000005067689
 50       0.000006934557
 51       0.000004225792
 52      -0.000000940984
 53      -0.000001295664
 54      -0.000000787951
 55       0.000000005768
 56       0.000000095628
 57       0.000000104890
 58      -0.000000073328
 59       0.000000210314
 60       0.000000452157
 61      -0.000000083759
 62      -0.000000157894
 63      -0.000000163814
 64       0.000000483642
 65       0.000000786546
 66      -0.000000120350
 67      -0.000000239719
 68      -0.000000306263
 69       0.000000904677
 70      -0.000002727547
 71       0.000000508479
 72       0.000000950856
 73       0.000000989822
 74      -0.000002917345
 75       0.000006330237
 76      -0.000001215643
 77      -0.000002258040
 78      -0.000002262464
 79       0.000006681325
 80      -0.000010391199
 81       0.000001924232
 82       0.000003613467
 83       0.000003768648
 84      -0.000011139740
 85       0.000027102792
 86      -0.000004884208
 87      -0.000009238415
 88      -0.000009949249
 89       0.000029388208
 90      -0.000002600223
 91       0.000000623139
 92       0.000001087332
 93       0.000000836816
 94      -0.000002446979
 95       0.000000274579
 96      -0.000000082565
 97      -0.000000138439
 98      -0.000000072815
 99       0.000000216635
100       0.000000629088
101       0.000000280707
102       0.000000320795
103      -0.000000103131
104       0.000000457509
105       0.000001404522
106      -0.000000450198
107      -0.000003001473
108      -0.000001358506
109      -0.000001559363
110       0.000000522095
111      -0.000002303203
112      -0.000006887594
113       0.000002208000
114       0.000008513465
115       0.000003950246
116       0.000004492105
117      -0.000001614538
118       0.000006903943
119       0.000020133925
120      -0.000006459949
121      -0.000000614540
122       0.000003072326
123      -0.000006105873
124       0.000018131061
125       0.000035279567
126       0.000066963391
127       0.000001394497
128      -0.000002871580
129      -0.000000796283
130      -0.000006009076
131       0.000012407682
132       0.000003445085
133       0.000009480286
134      -0.000022946465
135      -0.000006817005
136      -0.000000663114
137      -0.000000147689
138       0.000000505075
139      -0.000000512960
140      -0.000000894705
141       0.000003612700
142       0.000001176181
143      -0.000002910143
144       0.000003494740
145       0.000005290325
146      -0.000000389814
147       0.000000182441
148      -0.000000407482
149      -0.000000296860
150      -0.000000342587
151      -0.000000755170
152       0.000000169365
153      -0.000000616812
154       0.000003082960
155      -0.000006122738
156       0.000018116506
157       0.000035142663
158       0.000066711027
159      -0.000003203542
160       0.000000434183
161      -0.000000696619
162       0.000013709381
163      -0.000001842354
164       0.000002987579
165      -0.000024954126
166       0.000001891055
167      -0.000006037474
168      -0.000000699705
169       0.000000464161
170       0.000000034724
171       0.000000985175
172      -0.000000424852
173       0.000003782794
174      -0.000002730144
175       0.000000125958
176      -0.000006078441
177       0.000002213848
178      -0.000000364046
179      -0.000000511847
180       0.000000056843
181       0.000000402658
182      -0.000000090360
183      -0.000000755257
184       0.000000317689
 Sym=     1a
 Ene= -3.09370350280293E+02
 Spin= Alpha
 Occup= 1.000000
  1      -0.000000003244
  2      -0.000000003974
  3      -0.000000006809
  4      -0.000000014243
  5      -0.000000018332
  6      -0.000000008301
  7       0.000000047526
  8       0.000000034619
  9       0.000000057272
 10      -0.000000053820
 11       0.000000070197
 12      -0.000000085655
 13       0.000000012931
 14       0.000000169641
 15       0.000000245062
 16      -0.000001076660
 17       0.000000114582
 18       0.000000009380
 19       0.291443741265
 20      -0.208825042533
 21      -0.008935065934
 22       0.389751005355
 23      -0.279264068395
 24      -0.011948996823
 25       0.245303338646
 26      -0.175764563811
 27      -0.007520478966
 28       0.011893141311
 29      -0.008521643507
 30      -0.000364662687
 31       0.004606682645
 32      -0.003300833640
 33      -0.000141118869
 34      -0.003167389632
 35       0.002269622151
 36       0.000096868196
 37       0.001928551274
 38      -0.001382102890
 39      -0.000058688500
 40      -0.001214746461
 41       0.000870923663
 42       0.000036504348
 43       0.000771088649
 44      -0.000553175587
 45      -0.000022720259
 46      -0.000435219913
 47       0.000311691812
 48       0.000012531768
 49       0.000170333782
 50      -0.000121939579
 51      -0.000005166047
 52      -0.000053010690
 53       0.000037959755
 54       0.000001623911
 55      -0.000000041948
 56       0.000000874025
 57      -0.000000697602
 58       0.000002154871
 59       0.000000715874
 60      -0.000000018720
 61       0.000000543420
 62      -0.000000416710
 63       0.000001325805
 64       0.000000424033
 65       0.000000125903
 66      -0.000003180101
 67       0.000002480963
 68      -0.000007795308
 69      -0.000002527996
 70      -0.000000308365
 71       0.000007951320
 72      -0.000006204369
 73       0.000019491576
 74       0.000006321665
 75       0.000000639245
 76      -0.000017011084
 77       0.000013284738
 78      -0.000041704619
 79      -0.000013546783
 80      -0.000000943351
 81       0.000026067475
 82      -0.000020377103
 83       0.000063915336
 84       0.000020797430
 85       0.000000851326
 86      -0.000014773549
 87       0.000011402099
 88      -0.000036204539
 89      -0.000011406140
 90       0.000000111999
 91      -0.000003714717
 92       0.000002936582
 93      -0.000009128482
 94      -0.000003014979
 95      -0.000000051377
 96       0.000001406983
 97      -0.000001105716
 98       0.000003454673
 99       0.000001129253
100      -0.000000188857
101       0.000003326513
102      -0.000002288567
103      -0.000002959936
104      -0.000001144027
105      -0.000000315382
106      -0.000001190271
107       0.000001123458
108      -0.000019187635
109       0.000013220621
110       0.000017109735
111       0.000006646082
112       0.000001854611
113       0.000006808052
114      -0.000000677977
115       0.000013294472
116      -0.000009074282
117      -0.000011328843
118      -0.000004361252
119      -0.000001221079
120      -0.000005409804
121       0.000001528897
122      -0.000007853568
123       0.000015892517
124      -0.000047484904
125      -0.000068115991
126      -0.000062552643
127      -0.000005369802
128       0.000012469232
129       0.000003627439
130       0.000023177783
131      -0.000050558833
132      -0.000014352692
133      -0.000001021646
134       0.000008780450
135       0.000003239807
136       0.000003001206
137       0.000001409681
138      -0.000003309973
139       0.000004854611
140       0.000004338985
141      -0.000015586984
142      -0.000007080172
143       0.000015782442
144      -0.000022647801
145      -0.000023263890
146       0.000001655522
147      -0.000000343751
148       0.000001358122
149       0.000001966197
150       0.000001401030
151       0.000002448248
152      -0.000002168541
153      -0.000001547791
154       0.000007944324
155      -0.000016050608
156       0.000047662466
157       0.000068258921
158       0.000063768968
159      -0.000013676345
160       0.000001255481
161      -0.000003236355
162       0.000055413072
163      -0.000006329179
164       0.000012575605
165      -0.000009378681
166      -0.000001607320
167      -0.000003298960
168      -0.000003226977
169       0.000003295633
170      -0.000000313180
171       0.000006658368
172      -0.000000693556
173       0.000016496755
174      -0.000015450193
175       0.000001706376
176      -0.000032546100
177       0.000005548488
178      -0.000001615094
179      -0.000001650609
180      -0.000000089665
181       0.000002309710
182      -0.000000028430
183      -0.000003398638
184      -0.000000267953
 Sym=     1a
 Ene= -3.09370164925545E+02
 Spin= Alpha
 Occup= 1.000000
  1       0.000000663771
  2       0.000000774241
  3       0.000001556982
  4       0.000002481129
  5       0.000005035018
  6      -0.000001687120
  7      -0.000005307606
  8      -0.000015409942
  9       0.000009585361
 10      -0.000027686327
 11       0.000049649217
 12      -0.000080360169
 13       0.000129189419
 14      -0.000181664064
 15       0.000172542150
 16      -0.000079221726
 17      -0.000012649743
 18       0.000004832537
 19       0.190882070679
 20       0.259668707179
 21       0.157363822703
 22       0.255270388614
 23       0.347260126987
 24       0.210445763398
 25       0.160660095730
 26       0.218555877791
 27       0.132448719623
 28       0.007791018070
 29       0.010598611662
 30       0.006422934335
 31       0.003011832886
 32       0.004097168473
 33       0.002482981156
 34      -0.002062476878
 35      -0.002805693452
 36      -0.001700347000
 37       0.001240557442
 38       0.001687603266
 39       0.001022798929
 40      -0.000755999049
 41      -0.001028561407
 42      -0.000623444074
 43       0.000455779776
 44       0.000620230620
 45       0.000376011377
 46      -0.000256368171
 47      -0.000348056591
 48      -0.000211191616
 49       0.000111898226
 50       0.000152040173
 51       0.000092181601
 52      -0.000035256379
 53      -0.000047930936
 54      -0.000029052924
 55      -0.000001122657
 56       0.000001324611
 57       0.000001855528
 58      -0.000000471957
 59       0.000001517923
 60      -0.000000528845
 61      -0.000000285401
 62      -0.000000319088
 63       0.000000493874
 64      -0.000001500647
 65       0.000003318711
 66      -0.000000815844
 67      -0.000001416163
 68      -0.000001048333
 69       0.000003068446
 70      -0.000008106631
 71       0.000001957477
 72       0.000003415959
 73       0.000002584570
 74      -0.000007581234
 75       0.000017271406
 76      -0.000004178089
 77      -0.000007303937
 78      -0.000005476001
 79       0.000016122478
 80      -0.000026759954
 81       0.000006296057
 82       0.000011114946
 83       0.000008575663
 84      -0.000025387624
 85       0.000017442978
 86      -0.000004204639
 87      -0.000007143513
 88      -0.000005867613
 89       0.000016474743
 90       0.000002995916
 91      -0.000001570544
 92      -0.000002407044
 93      -0.000000238061
 94       0.000000711522
 95      -0.000001228358
 96       0.000000551166
 97       0.000000855986
 98       0.000000184721
 99      -0.000000524934
100       0.000002080577
101       0.000000884512
102       0.000001008451
103      -0.000000270987
104       0.000001276097
105       0.000004275659
106      -0.000001372451
107      -0.000011729115
108      -0.000005062948
109      -0.000005806835
110       0.000001654407
111      -0.000007683331
112      -0.000024863416
113       0.000007976731
114       0.000009148577
115       0.000003949743
116       0.000004425084
117      -0.000001274899
118       0.000005642635
119       0.000018910169
120      -0.000006050993
121      -0.000001010897
122       0.000005177997
123      -0.000010412508
124       0.000030492685
125       0.000043524925
126       0.000044042004
127       0.000005394641
128      -0.000007336717
129      -0.000001541433
130      -0.000019221631
131       0.000030085189
132       0.000007100780
133       0.000009098004
134      -0.000004467669
135       0.000000620087
136      -0.000002589194
137      -0.000001021804
138       0.000000881845
139      -0.000000859463
140      -0.000004952976
141       0.000011793102
142       0.000004779684
143      -0.000005986257
144       0.000007118493
145       0.000021261339
146      -0.000000405326
147       0.000001406275
148      -0.000001581094
149       0.000000710105
150      -0.000001070179
151      -0.000002975070
152      -0.000002443564
153      -0.000001022510
154       0.000005233962
155      -0.000010510796
156       0.000030611922
157       0.000043618398
158       0.000044689750
159      -0.000008751818
160       0.000002821895
161      -0.000001239668
162       0.000034702281
163      -0.000008794841
164       0.000005886064
165      -0.000007504128
166       0.000007263607
167       0.000000896101
168      -0.000002693269
169       0.000000872857
170      -0.000000571204
171       0.000003734269
172      -0.000003493041
173       0.000012236664
174      -0.000005806619
175       0.000002208200
176      -0.000018658878
177       0.000012908521
178      -0.000000240273
179      -0.000002039713
180       0.000000910232
181      -0.000000092433
182      -0.000001072350
183      -0.000001074601
184       0.000003760321
 Sym=     1a
 Ene= -3.09370061531821E+02
 Spin= Alpha
 Occup= 1.000000
  1       0.000000001889
  2       0.000000002200
  3       0.000000004446
  4       0.000000007020
  5       0.000000014449
  6      -0.000000005118
  7      -0.000000014654
  8      -0.000000044366
  9       0.000000028617
 10      -0.000000082058
 11       0.000000146934
 12      -0.000000237628
 13       0.000000381117
 14      -0.000000534558
 15       0.000000510687
 16      -0.000000241519
 17      -0.000000036469
 18       0.000000014321
 19      -0.085157013006
 20      -0.132632345064
 21       0.322154217057
 22      -0.113882669007
 23      -0.177372587785
 24       0.430825016938
 25      -0.071674418014
 26      -0.111633188870
 27       0.271148778253
 28      -0.003476477436
 29      -0.005414538478
 30       0.013151563164
 31      -0.001341969332
 32      -0.002090349713
 33       0.005077173227
 34       0.000916788987
 35       0.001428386716
 36      -0.003469156938
 37      -0.000547176084
 38      -0.000853138283
 39       0.002071667204
 40       0.000326177717
 41       0.000509625205
 42      -0.001236886837
 43      -0.000189311513
 44      -0.000296858423
 45       0.000719855940
 46       0.000104631945
 47       0.000164219257
 48      -0.000398161858
 49      -0.000049411171
 50      -0.000076978190
 51       0.000186973410
 52       0.000015738618
 53       0.000024499112
 54      -0.000059517322
 55       0.000001961836
 56       0.000001059507
 57       0.000001398617
 58       0.000000407846
 59      -0.000001055924
 60      -0.000000651848
 61      -0.000000346460
 62      -0.000000464729
 63      -0.000000117660
 64       0.000000351707
 65      -0.000000388080
 66      -0.000000234350
 67      -0.000000272595
 68      -0.000000141612
 69       0.000000205996
 70       0.000000666800
 71       0.000000425667
 72       0.000000463160
 73       0.000000292153
 74      -0.000000350318
 75      -0.000001328752
 76      -0.000000860155
 77      -0.000000919690
 78      -0.000000604237
 79       0.000000696246
 80       0.000001859863
 81       0.000001226753
 82       0.000001282094
 83       0.000000889951
 84      -0.000000974000
 85      -0.000001685927
 86      -0.000001042174
 87      -0.000001184169
 88      -0.000000633702
 89       0.000000909104
 90      -0.000001862829
 91      -0.000001035066
 92      -0.000001315292
 93      -0.000000439130
 94       0.000000996359
 95       0.000000574493
 96       0.000000321410
 97       0.000000405536
 98       0.000000140856
 99      -0.000000307177
100       0.000000406861
101      -0.000000106637
102      -0.000000256275
103      -0.000000174125
104       0.000000420562
105      -0.000000217666
106       0.000000048889
107      -0.000002324841
108       0.000000691735
109       0.000001579099
110       0.000000989075
111      -0.000002354852
112       0.000001186745
113      -0.000000269254
114       0.000003289763
115      -0.000001101759
116      -0.000002169624
117      -0.000001323235
118       0.000003366819
119      -0.000001731132
120       0.000000419315
121       0.000000008140
122      -0.000000041858
123       0.000000084899
124      -0.000000255498
125      -0.000000367153
126      -0.000000325174
127      -0.000000549525
128      -0.000000721218
129       0.000001949988
130       0.000001395839
131       0.000001648583
132      -0.000004786574
133      -0.000002405262
134      -0.000003589619
135       0.000008907128
136      -0.000001111321
137       0.000001429142
138      -0.000002169466
139      -0.000001296527
140       0.000000165971
141       0.000003361161
142      -0.000004368217
143       0.000006651939
144       0.000003910772
145      -0.000000565319
146       0.000001697671
147       0.000000818650
148      -0.000002266228
149       0.000001065936
150       0.000002388871
151      -0.000000563646
152       0.000001618472
153      -0.000000014275
154       0.000000073227
155      -0.000000147758
156       0.000000437010
157       0.000000625220
158       0.000000595758
159      -0.000000647327
160      -0.000000766303
161       0.000001884948
162       0.000001770328
163       0.000001827051
164      -0.000004524246
165      -0.000002503115
166      -0.000003612663
167       0.000008816230
168      -0.000000999266
169      -0.000002512234
170       0.000000654366
171       0.000000970153
172       0.000000970584
173       0.000003102149
174       0.000007582452
175      -0.000001974401
176      -0.000003055233
177      -0.000002919032
178       0.000001835223
179      -0.000002143987
180      -0.000000014215
181      -0.000002372308
182       0.000001272867
183      -0.000001379060
184      -0.000001117383
 Sym=     1a
 Ene= -8.02663067912166E+01
 Spin= Alpha
 Occup= 1.000000
  1       0.016380724060
  2       0.020218626107
  3       0.035868160032
  4       0.073362646283
  5       0.105062237405
  6       0.033172052091
  7      -0.372719013148
  8      -0.692169581510
  9       0.458336233244
 10       0.900038257228
 11       0.035209699910
 12       0.037257575424
 13      -0.025183940673
 14       0.017242143057
 15      -0.011744830721
 16       0.007448384014
 17      -0.002826169707
 18       0.000732028515
 19      -0.000004737753
 20      -0.000006669046
 21      -0.000004022598
 22      -0.000007045502
 23      -0.000009940100
 24      -0.000005991301
 25      -0.000003617886
 26      -0.000004894278
 27      -0.000002992863
 28       0.000027627262
 29       0.000038414641
 30       0.000023272049
 31      -0.000006577078
 32      -0.000008486541
 33      -0.000005285699
 34       0.000030876045
 35       0.000041910108
 36       0.000025608242
 37      -0.000057346966
 38      -0.000077945750
 39      -0.000047604638
 40       0.000106561489
 41       0.000145296708
 42       0.000088645441
 43      -0.000168010520
 44      -0.000228802456
 45      -0.000139647902
 46       0.000354641224
 47       0.000484837765
 48       0.000295540882
 49      -0.000065278170
 50      -0.000089340773
 51      -0.000054439693
 52       0.000012132212
 53       0.000016710294
 54       0.000010161272