[Molden Format]
[Title]
 Molden file created by orca_2mkl for BaseName=/home/nikolayandreadi_2125/_scratch/F_cc/Sm_F_cc

[Atoms] AU
Sm   1  62          0.1762963305         0.3871311855        -0.5723092288 
F    2   9         -1.3077830813        -2.1534582029        -3.1397062722 
F    3   9         -1.4827339267         3.8307413248         0.2450351186 
F    4   9          3.9376506911        -0.1927709629         0.2252270093 
[GTO]
  1 0
s   6 1.0 
  1062932.5401760000      2015.4033414015
   472414.4623000000      -530.2484535570
   209961.9832450000      1184.0193668322
    93316.4369980000       281.7673601451
    41473.9719990000       732.4402389394
    18432.8764440000       565.1951099566
s   1 1.0 
     8192.3895310000       613.7168364017
s   1 1.0 
     3641.0620140000       334.0651324018
s   1 1.0 
     1618.2497840000       181.8420256088
s   1 1.0 
      719.2221260000        98.9822614294
s   1 1.0 
      319.6542780000        53.8791186583
s   1 1.0 
      142.0685680000        29.3280774453
s   1 1.0 
       63.1415860000        15.9641833483
s   1 1.0 
       28.0629270000         8.6898007217
s   1 1.0 
       12.4724120000         4.7301283855
s   1 1.0 
        5.5432940000         2.5747556920
s   1 1.0 
        2.4636860000         1.4015193847
s   1 1.0 
        1.0949720000         0.7628907560
s   1 1.0 
        0.4866540000         0.4152649871
s   1 1.0 
        0.2162910000         0.2260418893
s   1 1.0 
        0.0961290000         0.1230412999
s   1 1.0 
        0.0427240000         0.0669752004
s   1 1.0 
        0.0189880000         0.0364560415
p   5 1.0 
    14404.1721250000      2744.8949604333
     5761.6688500000      1139.8678591343
     2304.6675400000      1806.9940214775
      921.8670160000      1796.2052381751
      368.7468060000      1716.9611649775
p   1 1.0 
      147.4987230000       732.6986870548
p   1 1.0 
       58.9994890000       233.0775265407
p   1 1.0 
       23.5997960000        74.1438953273
p   1 1.0 
        9.4399180000        23.5857866190
p   1 1.0 
        3.7759670000         7.5028337885
p   1 1.0 
        1.5103870000         2.3867140330
p   1 1.0 
        0.6041550000         0.7592338375
p   1 1.0 
        0.2416620000         0.2415185789
p   1 1.0 
        0.0966650000         0.0768292612
p   1 1.0 
        0.0386660000         0.0244400250
p   1 1.0 
        0.0154660000         0.0077743233
d   4 1.0 
     1004.1583960000      4186.2867605126
      365.1485080000      4040.4728439300
      132.7812750000      3762.5495192093
       48.2841000000      2011.2515485290
d   1 1.0 
       17.5578550000       429.3338542770
d   1 1.0 
        6.3846740000        73.1076554091
d   1 1.0 
        2.3217000000        12.4488937692
d   1 1.0 
        0.8442540000         2.1198154627
d   1 1.0 
        0.3070020000         0.3609667439
d   1 1.0 
        0.1116370000         0.0614659161
d   1 1.0 
        0.0405950000         0.0104663930
d   1 1.0 
        0.0147620000         0.0017822728
f   4 1.0 
       27.1800850000       996.9794071247
        9.0600280000       272.9712358672
        3.0200090000        35.7157423366
        1.0066700000         2.1818001987
f   1 1.0 
        0.3355570000         0.4886233996
f   1 1.0 
        0.1118520000         0.0412523340

  2 0
s   6 1.0 
    35479.1004410000         1.9229128581
     5318.4728983000         2.2734773358
     1210.4810975000         3.4747482552
      342.8551814000         5.2879612972
      112.0194318100         7.1666332516
       40.7147402500         7.7556346254
s   1 1.0 
       16.0396781100         5.7122450312
s   1 1.0 
        6.5038186700         2.9025947842
s   1 1.0 
        1.5440477500         0.9872011154
s   1 1.0 
        0.6122345300        -0.4932856223
s   1 1.0 
        0.2402798000         0.2445952611
p   4 1.0 
       80.2339004800         4.2755032106
       18.5940107400         4.7314752302
        5.6867902700         4.0864798013
        1.9511006300         2.2989954518
p   1 1.0 
        0.6697021100         0.8635593126
p   1 1.0 
        0.2165130000         0.2105208234
d   1 1.0 
        3.1070000000        20.7284714039
d   1 1.0 
        0.8550000000         2.1672588463
f   1 1.0 
        1.9170000000        24.6547062912

  3 0
s   6 1.0 
    35479.1004410000         1.9229128581
     5318.4728983000         2.2734773358
     1210.4810975000         3.4747482552
      342.8551814000         5.2879612972
      112.0194318100         7.1666332516
       40.7147402500         7.7556346254
s   1 1.0 
       16.0396781100         5.7122450312
s   1 1.0 
        6.5038186700         2.9025947842
s   1 1.0 
        1.5440477500         0.9872011154
s   1 1.0 
        0.6122345300        -0.4932856223
s   1 1.0 
        0.2402798000         0.2445952611
p   4 1.0 
       80.2339004800         4.2755032106
       18.5940107400         4.7314752302
        5.6867902700         4.0864798013
        1.9511006300         2.2989954518
p   1 1.0 
        0.6697021100         0.8635593126
p   1 1.0 
        0.2165130000         0.2105208234
d   1 1.0 
        3.1070000000        20.7284714039
d   1 1.0 
        0.8550000000         2.1672588463
f   1 1.0 
        1.9170000000        24.6547062912

  4 0
s   6 1.0 
    35479.1004410000         1.9229128581
     5318.4728983000         2.2734773358
     1210.4810975000         3.4747482552
      342.8551814000         5.2879612972
      112.0194318100         7.1666332516
       40.7147402500         7.7556346254
s   1 1.0 
       16.0396781100         5.7122450312
s   1 1.0 
        6.5038186700         2.9025947842
s   1 1.0 
        1.5440477500         0.9872011154
s   1 1.0 
        0.6122345300        -0.4932856223
s   1 1.0 
        0.2402798000         0.2445952611
p   4 1.0 
       80.2339004800         4.2755032106
       18.5940107400         4.7314752302
        5.6867902700         4.0864798013
        1.9511006300         2.2989954518
p   1 1.0 
        0.6697021100         0.8635593126
p   1 1.0 
        0.2165130000         0.2105208234
d   1 1.0 
        3.1070000000        20.7284714039
d   1 1.0 
        0.8550000000         2.1672588463
f   1 1.0 
        1.9170000000        24.6547062912

[5D]
[7F]
[9G]
[MO]
 Sym=     1a
 Ene= -1.72766104244815E+03
 Spin= Alpha
 Occup= 1.000000
  1      -0.083754243776
  2      -0.095681045871
  3      -0.172393945580
  4      -0.299419870994
  5      -0.343686782519
  6      -0.174636885122
  7      -0.010623819500
  8      -0.003174165880
  9       0.002309817352
 10      -0.001521755596
 11       0.001026279953
 12      -0.000689792451
 13       0.000458418451
 14      -0.000305470937
 15       0.000200098691
 16      -0.000117157571
 17       0.000045428959
 18      -0.000012084875
 19       0.000000110342
 20       0.000000035614
 21      -0.000000177185
 22      -0.000000100421
 23      -0.000000049906
 24       0.000000153818
 25       0.000000073870
 26       0.000000037826
 27      -0.000000120010
 28      -0.000000077287
 29      -0.000000048335
 30       0.000000129078
 31       0.000000101491
 32       0.000000071710
 33      -0.000000173671
 34      -0.000000154615
 35      -0.000000115140
 36       0.000000269601
 37       0.000000274171
 38       0.000000202571
 39      -0.000000469599
 40      -0.000000484155
 41      -0.000000347097
 42       0.000000800660
 43       0.000000634555
 44       0.000000489737
 45      -0.000001075671
 46      -0.000000691239
 47      -0.000000575520
 48       0.000001279592
 49       0.000000111768
 50       0.000000051387
 51      -0.000000185328
 52      -0.000000023242
 53      -0.000000007915
 54       0.000000036495
 55       0.000000006182
 56      -0.000000051661
 57      -0.000000206460
 58       0.000000124263
 59      -0.000000078285
 60      -0.000000109231
 61       0.000000126089
 62       0.000000285903
 63      -0.000000079023
 64      -0.000000014769
 65       0.000000279601
 66      -0.000000262445
 67      -0.000000474372
 68       0.000000043297
 69       0.000000145483
 70      -0.000000588042
 71       0.000000520901
 72       0.000000858275
 73      -0.000000000964
 74      -0.000000362488
 75       0.000001185624
 76      -0.000001034261
 77      -0.000001659995
 78      -0.000000044198
 79       0.000000758475
 80      -0.000001871965
 81       0.000001631641
 82       0.000002586613
 83       0.000000096088
 84      -0.000001205480
 85       0.000002653929
 86      -0.000002389722
 87      -0.000003672108
 88      -0.000000176792
 89       0.000001673979
 90      -0.000000125239
 91       0.000000093897
 92       0.000000194477
 93      -0.000000019438
 94      -0.000000088023
 95       0.000000008982
 96      -0.000000002772
 97      -0.000000018506
 98       0.000000007326
 99       0.000000008162
100       0.000000067187
101       0.000000116491
102       0.000000179477
103      -0.000000103048
104       0.000000232087
105       0.000000381065
106      -0.000000109214
107      -0.000000384413
108      -0.000000658796
109      -0.000001006605
110       0.000000584435
111      -0.000001307663
112      -0.000002153522
113       0.000000618182
114       0.000000672581
115       0.000001064847
116       0.000001673719
117      -0.000000977045
118       0.000002310190
119       0.000003674469
120      -0.000001019486
121      -0.000000122830
122       0.000000567596
123      -0.000001075925
124       0.000003096455
125       0.000005592933
126       0.000007746604
127       0.000000209094
128       0.000000414553
129       0.000000414134
130      -0.000000996109
131      -0.000001895700
132      -0.000001902333
133       0.000000285549
134       0.000001039208
135       0.000001040420
136       0.000000026763
137       0.000000134512
138       0.000000235531
139      -0.000000074058
140       0.000000100762
141      -0.000000199419
142      -0.000000737020
143      -0.000001274499
144       0.000000407938
145      -0.000000643835
146       0.000000002580
147      -0.000000007027
148      -0.000000020468
149       0.000000021897
150      -0.000000014869
151      -0.000000019229
152      -0.000000005408
153      -0.000000125589
154       0.000000579859
155      -0.000001097404
156       0.000003135570
157       0.000005624626
158       0.000007825395
159       0.000000257895
160      -0.000000565198
161      -0.000000131502
162      -0.000001182220
163       0.000002558143
164       0.000000595478
165       0.000000487318
166      -0.000001348628
167      -0.000000260528
168      -0.000000148312
169      -0.000000022305
170       0.000000121865
171      -0.000000153880
172      -0.000000199913
173       0.000000774097
174       0.000000194421
175      -0.000000604304
176       0.000000859313
177       0.000001098789
178      -0.000000012463
179       0.000000001582
180      -0.000000020558
181      -0.000000007067
182      -0.000000016900
183      -0.000000035727
184       0.000000014872
185      -0.000000119090
186       0.000000551164
187      -0.000001047895
188       0.000003061136
189       0.000005602970
190       0.000007708054
191      -0.000000582880
192       0.000000099706
193      -0.000000105028
194       0.000002778270
195      -0.000000460640
196       0.000000524831
197      -0.000001388325
198       0.000000296028
199      -0.000000092252
200      -0.000000133787
201       0.000000096402
202       0.000000010545
203       0.000000203015
204      -0.000000077039
205       0.000000745276
206      -0.000000564689
207       0.000000019373
208      -0.000001245522
209       0.000000428489
210       0.000000004116
211      -0.000000005296
212      -0.000000004798
213      -0.000000005806
214      -0.000000006820
215      -0.000000007068
216       0.000000007056
 Sym=     1a
 Ene= -2.87080805098398E+02
 Spin= Alpha
 Occup= 1.000000
  1      -0.030995102845
  2      -0.038937665765
  3      -0.071243465504
  4      -0.145978419952
  5      -0.206180883586
  6      -0.090528979730
  7       0.459956090331
  8       0.609610893424
  9       0.104111177589
 10       0.003879940383
 11      -0.003361754897
 12       0.002400763933
 13      -0.001752578030
 14       0.001217142629
 15      -0.000804370775
 16       0.000472982103
 17      -0.000183889358
 18       0.000049013732
 19      -0.000000018260
 20       0.000000887029
 21      -0.000000000928
 22      -0.000000068482
 23       0.000001278176
 24       0.000000186055
 25      -0.000000323363
 26       0.000000879000
 27       0.000000452220
 28      -0.000000524431
 29      -0.000000173195
 30       0.000000385732
 31      -0.000000079380
 32      -0.000000076159
 33       0.000000287341
 34       0.000000488537
 35       0.000000378005
 36      -0.000000929201
 37      -0.000001018163
 38      -0.000000763214
 39       0.000001777995
 40       0.000001921854
 41       0.000001371643
 42      -0.000003189931
 43      -0.000002636840
 44      -0.000001997092
 45       0.000004436166
 46       0.000002793153
 47       0.000002311779
 48      -0.000005142073
 49      -0.000000445972
 50      -0.000000198546
 51       0.000000728813
 52       0.000000092537
 53       0.000000029390
 54      -0.000000142199
 55       0.000000043453
 56       0.000006401372
 57       0.000027439050
 58      -0.000017143599
 59       0.000011495630
 60       0.000000390418
 61      -0.000000525176
 62      -0.000001303884
 63       0.000000482891
 64      -0.000000065871
 65      -0.000000892948
 66       0.000000701736
 67       0.000000789930
 68       0.000000356491
 69      -0.000000741060
 70       0.000002244227
 71      -0.000002006645
 72      -0.000003294667
 73       0.000000009588
 74       0.000001366614
 75      -0.000004884482
 76       0.000004265540
 77       0.000006833850
 78       0.000000193230
 79      -0.000003121829
 80       0.000007795788
 81      -0.000006798655
 82      -0.000010763821
 83      -0.000000415492
 84       0.000005017916
 85      -0.000010725318
 86       0.000009662551
 87       0.000014828148
 88       0.000000731863
 89      -0.000006760885
 90       0.000000482878
 91      -0.000000357571
 92      -0.000000750822
 93       0.000000077724
 94       0.000000341775
 95      -0.000000030418
 96       0.000000005521
 97       0.000000065853
 98      -0.000000029395
 99      -0.000000029548
100      -0.000000245370
101      -0.000000529709
102      -0.000000842386
103       0.000000448098
104      -0.000001094504
105      -0.000001711377
106       0.000000493988
107       0.000001624925
108       0.000002821577
109       0.000004311338
110      -0.000002495531
111       0.000005599769
112       0.000009201122
113      -0.000002644007
114      -0.000002739597
115      -0.000004353963
116      -0.000006837524
117       0.000003989041
118      -0.000009433797
119      -0.000015003075
120       0.000004164792
121       0.000000413538
122      -0.000002097049
123       0.000004214778
124      -0.000012518591
125      -0.000022416559
126      -0.000031003942
127      -0.000000887912
128      -0.000001754135
129      -0.000001753411
130       0.000004057891
131       0.000007736022
132       0.000007757686
133      -0.000001057229
134      -0.000004059290
135      -0.000004057708
136      -0.000000124979
137      -0.000000583140
138      -0.000001025660
139       0.000000326142
140      -0.000000450796
141       0.000000848460
142       0.000003084282
143       0.000005350450
144      -0.000001722012
145       0.000002715338
146      -0.000000032227
147       0.000000050220
148       0.000000122937
149      -0.000000121489
150       0.000000114071
151       0.000000108716
152       0.000000022613
153       0.000000422343
154      -0.000002140386
155       0.000004295167
156      -0.000012670430
157      -0.000022538542
158      -0.000031321431
159      -0.000001091970
160       0.000002390652
161       0.000000556246
162       0.000004819811
163      -0.000010429664
164      -0.000002431187
165      -0.000001872845
166       0.000005257223
167       0.000001008165
168       0.000000640295
169       0.000000108530
170      -0.000000522421
171       0.000000674632
172       0.000000870751
173      -0.000003239176
174      -0.000000832197
175       0.000002525864
176      -0.000003613049
177      -0.000004608587
178       0.000000075034
179      -0.000000022402
180       0.000000118075
181       0.000000047342
182       0.000000096258
183       0.000000206303
184      -0.000000075785
185       0.000000402010
186      -0.000002040193
187       0.000004113180
188      -0.000012393190
189      -0.000022479918
190      -0.000030868811
191       0.000002474739
192      -0.000000421547
193       0.000000448078
194      -0.000011339985
195       0.000001883598
196      -0.000002142883
197       0.000005400816
198      -0.000001169846
199       0.000000323913
200       0.000000583765
201      -0.000000422654
202      -0.000000034451
203      -0.000000901745
204       0.000000337190
205      -0.000003129060
206       0.000002371024
207      -0.000000097491
208       0.000005249586
209      -0.000001802989
210       0.000000008496
211       0.000000063028
212       0.000000013233
213      -0.000000008076
214       0.000000040644
215       0.000000089756
216      -0.000000058901
 Sym=     1a
 Ene= -2.56432368892326E+02
 Spin= Alpha
 Occup= 1.000000
  1       0.000000073797
  2       0.000000093656
  3       0.000000169066
  4       0.000000358029
  5       0.000000482638
  6       0.000000237494
  7      -0.000001330730
  8      -0.000001193949
  9      -0.000000372529
 10       0.000000379690
 11      -0.000000705613
 12       0.000001125489
 13      -0.000001765143
 14       0.000002344523
 15      -0.000001997350
 16       0.000000650215
 17       0.000000362054
 18      -0.000000109423
 19       0.077532002328
 20       0.277905439727
 21       0.201585352177
 22       0.105626674825
 23       0.378607377011
 24       0.274632019841
 25       0.067559421200
 26       0.242159219653
 27       0.175656038589
 28       0.003699759975
 29       0.013259970703
 30       0.009618853461
 31       0.001211335201
 32       0.004344142168
 33       0.003150443496
 34      -0.000838581524
 35      -0.003009925207
 36      -0.002182068669
 37       0.000507695086
 38       0.001827255858
 39       0.001323130125
 40      -0.000319570868
 41      -0.001158129150
 42      -0.000835980117
 43       0.000200666600
 44       0.000734767969
 45       0.000528027753
 46      -0.000088635987
 47      -0.000329286296
 48      -0.000238033447
 49       0.000038091174
 50       0.000136206110
 51       0.000099547495
 52      -0.000012439595
 53      -0.000044350071
 54      -0.000032391047
 55      -0.000000152631
 56      -0.000000303117
 57      -0.000000042959
 58      -0.000000315349
 59      -0.000000289016
 60      -0.000000542985
 61      -0.000000950038
 62      -0.000001046661
 63       0.000000230906
 64      -0.000001623104
 65       0.000003931223
 66       0.000002850857
 67       0.000003436111
 68      -0.000000427122
 69       0.000006090014
 70      -0.000009397228
 71      -0.000007416394
 72      -0.000008551466
 73       0.000000947127
 74      -0.000015393033
 75       0.000020833468
 76       0.000016270860
 77       0.000018662945
 78      -0.000002061285
 79       0.000034060634
 80      -0.000034347682
 81      -0.000026813475
 82      -0.000030804184
 83       0.000003597497
 84      -0.000056310118
 85      -0.000006629520
 86      -0.000004854646
 87      -0.000006128696
 88       0.000002333095
 89      -0.000011422986
 90       0.000009212291
 91       0.000006988004
 92       0.000008253697
 93      -0.000001253460
 94       0.000014868661
 95      -0.000002726869
 96      -0.000002067847
 97      -0.000002439967
 98       0.000000352371
 99      -0.000004382811
100       0.000002922323
101      -0.000001663587
102      -0.000000298239
103       0.000001200424
104      -0.000001443265
105       0.000003097956
106      -0.000000594256
107      -0.000022971165
108       0.000011564842
109       0.000006431795
110      -0.000017110863
111       0.000014347566
112      -0.000014307087
113       0.000007542198
114       0.000008657198
115      -0.000002950994
116      -0.000001511141
117       0.000006573084
118      -0.000003171325
119       0.000003340019
120      -0.000002752117
121       0.000000823227
122      -0.000004387512
123       0.000009225302
124      -0.000029347682
125      -0.000026637139
126       0.000034167646
127      -0.000004840377
128      -0.000007073981
129      -0.000007769396
130       0.000020475146
131       0.000031308303
132       0.000033583282
133       0.000015562515
134       0.000034381719
135       0.000030344977
136      -0.000001302091
137      -0.000003543761
138      -0.000005256387
139       0.000001363164
140      -0.000003321204
141       0.000006286565
142       0.000017472100
143       0.000027357070
144      -0.000007777873
145       0.000016706203
146      -0.000000242928
147       0.000000612993
148       0.000000512105
149       0.000000218297
150       0.000000813584
151       0.000000098595
152      -0.000000363183
153      -0.000000623525
154       0.000003319590
155      -0.000006966525
156       0.000022057029
157       0.000020576260
158      -0.000022623943
159       0.000004721443
160      -0.000007256483
161      -0.000000864618
162      -0.000018966174
163       0.000031845628
164       0.000005004589
165      -0.000008615760
166       0.000032192948
167       0.000012698242
168      -0.000002736838
169      -0.000000644257
170       0.000000704474
171      -0.000001954087
172      -0.000004584169
173       0.000013320427
174       0.000003703607
175      -0.000005558714
176       0.000011601347
177       0.000021433271
178       0.000000427921
179       0.000000795755
180      -0.000000801286
181       0.000000651356
182       0.000000247399
183      -0.000001144922
184      -0.000001337038
185      -0.000000202686
186       0.000001073735
187      -0.000002235023
188       0.000006861483
189       0.000005219185
190      -0.000012663877
191      -0.000002721047
192       0.000001703591
193       0.000000260345
194       0.000011591680
195      -0.000005576836
196      -0.000000028541
197       0.000013130754
198       0.000004404795
199       0.000007175443
200      -0.000001163686
201      -0.000000483279
202      -0.000000324408
203       0.000001222480
204      -0.000002196341
205       0.000005268299
206       0.000000584864
207       0.000001227614
208      -0.000006425876
209       0.000008120524
210       0.000000634954
211      -0.000000749837
212       0.000000542576
213      -0.000000989623
214      -0.000000366973
215       0.000000392645
216       0.000002012738
 Sym=     1a
 Ene= -2.56424640085302E+02
 Spin= Alpha
 Occup= 1.000000
  1      -0.000000032858
  2      -0.000000051973
  3      -0.000000046167
  4      -0.000000273659
  5       0.000000032708
  6      -0.000000760208
  7       0.000002315862
  8      -0.000000574250
  9       0.000001155589
 10      -0.000007028716
 11       0.000013037464
 12      -0.000020793518
 13       0.000033880357
 14      -0.000047398977
 15       0.000033003074
 16       0.000010409983
 17      -0.000010985337
 18       0.000002485765
 19       0.263064895893
 20       0.084710265943
 21      -0.217959385011
 22       0.358392259932
 23       0.115407590023
 24      -0.296942660480
 25       0.229206371776
 26       0.073807502386
 27      -0.189906326943
 28       0.012540824287
 29       0.004041771736
 30      -0.010395257600
 31       0.004112380549
 32       0.001318235135
 33      -0.003399070672
 34      -0.002838382850
 35      -0.000903185970
 36       0.002336968372
 37       0.001709544182
 38       0.000530298317
 39      -0.001388838225
 40      -0.001058909054
 41      -0.000304177239
 42       0.000826876892
 43       0.000650299996
 44       0.000165014746
 45      -0.000478049796
 46      -0.000313702323
 47      -0.000108317750
 48       0.000273443619
 49       0.000137966079
 50       0.000054447584
 51      -0.000128835254
 52      -0.000044501260
 53      -0.000017064319
 54       0.000040797152
 55      -0.000000161397
 56       0.000000133448
 57      -0.000000232381
 58       0.000000063255
 59       0.000000247563
 60      -0.000000256472
 61       0.000000507524
 62      -0.000000224941
 63       0.000000819448
 64      -0.000000170582
 65       0.000001023188
 66      -0.000001089558
 67       0.000000830807
 68      -0.000003925663
 69       0.000000018627
 70      -0.000002625913
 71       0.000003311555
 72      -0.000002191535
 73       0.000009738471
 74      -0.000000198868
 75       0.000005913458
 76      -0.000007494836
 77       0.000004758477
 78      -0.000021586120
 79       0.000000486681
 80      -0.000009982822
 81       0.000012646136
 82      -0.000007861108
 83       0.000035866916
 84      -0.000000978552
 85      -0.000002345365
 86       0.000002986152
 87      -0.000003005220
 88       0.000008530830
 89      -0.000000646311
 90       0.000002519262
 91      -0.000003146871
 92       0.000002611468
 93      -0.000009807862
 94       0.000000212811
 95      -0.000000737154
 96       0.000000916876
 97      -0.000000762017
 98       0.000002888211
 99      -0.000000053508
100       0.000001132377
101       0.000001731365
102      -0.000002047914
103      -0.000002260317
104       0.000000576150
105       0.000001419571
106      -0.000001876213
107      -0.000004244139
108      -0.000014199047
109       0.000003889862
110       0.000009979227
111       0.000003334420
112      -0.000008953898
113       0.000007224338
114       0.000000490827
115       0.000005769950
116       0.000002564057
117      -0.000002471000
118      -0.000003631317
119       0.000002245029
120      -0.000003286630
121      -0.000000003842
122       0.000000014853
123      -0.000000011378
124      -0.000000030116
125       0.000001504744
126       0.000005802207
127       0.000001328012
128       0.000000548184
129      -0.000001700901
130      -0.000003647571
131      -0.000001213871
132       0.000004906128
133       0.000007934384
134       0.000004395238
135      -0.000003756705
136      -0.000002391871
137       0.000000400503
138      -0.000000903329
139       0.000000131403
140       0.000001504734
141       0.000007433670
142      -0.000001150837
143       0.000003196153
144      -0.000000690913
145      -0.000004528012
146       0.000001485021
147       0.000000678416
148       0.000002024689
149      -0.000000734673
150      -0.000000970207
151      -0.000001029975
152       0.000000759390
153       0.000000145493
154      -0.000000787524
155       0.000001699666
156      -0.000005717249
157      -0.000004147533
158       0.000010438831
159       0.000000367700
160       0.000003171593
161      -0.000000946201
162       0.000000628672
163      -0.000012418362
164       0.000001681310
165       0.000011682978
166      -0.000006097328
167      -0.000007855379
168       0.000001437035
169      -0.000000985721
170       0.000000948789
171       0.000002774372
172      -0.000000040350
173      -0.000005903721
174       0.000002470121
175      -0.000001720056
176      -0.000010464698
177      -0.000002092326
178      -0.000000860721
179      -0.000000119480
180       0.000001276332
181      -0.000000141062
182      -0.000001550943
183      -0.000000089969
184      -0.000002291008
185      -0.000000480154
186       0.000002561408
187      -0.000005401632
188       0.000017405338
189       0.000015823353
190      -0.000023029443
191      -0.000006151375
192       0.000001805865
193      -0.000003182048
194       0.000028064734
195      -0.000006618949
196       0.000011171695
197       0.000030754864
198      -0.000002242001
199      -0.000000520717
200      -0.000001005325
201       0.000003626282
202      -0.000000886566
203       0.000002563033
204      -0.000002060029
205       0.000007079975
206      -0.000014403647
207       0.000003200963
208      -0.000015140129
209       0.000008629091
210      -0.000001314187
211       0.000001107195
212       0.000000055311
213       0.000001656233
214      -0.000000874933
215       0.000000643134
216       0.000000926174
 Sym=     1a
 Ene= -2.56424270834560E+02
 Spin= Alpha
 Occup= 1.000000
  1       0.000000040942
  2       0.000000048301
  3       0.000000103859
  4       0.000000157870
  5       0.000000355210
  6      -0.000000086600
  7      -0.000000132864
  8      -0.000001364442
  9       0.000000764773
 10      -0.000002454170
 11       0.000004402061
 12      -0.000007034833
 13       0.000011115825
 14      -0.000014855356
 15       0.000011463032
 16      -0.000001013940
 17      -0.000002582593
 18       0.000000599981
 19      -0.220616070002
 20       0.198681966654
 21      -0.189050933760
 22      -0.300560414491
 23       0.270678727316
 24      -0.257558213059
 25      -0.192220136784
 26       0.173109161210
 27      -0.164717962190
 28      -0.010512246321
 29       0.009470733317
 30      -0.009014015054
 31      -0.003456637471
 32       0.003106582150
 33      -0.002951959028
 34       0.002394047300
 35      -0.002144555817
 36       0.002033305366
 37      -0.001459232111
 38       0.001292655577
 39      -0.001216422922
 40       0.000934561037
 41      -0.000802167849
 42       0.000738802825
 43      -0.000601247762
 44       0.000494014916
 45      -0.000440431459
 46       0.000251897658
 47      -0.000239860729
 48       0.000229108677
 49      -0.000102592396
 50       0.000104310622
 51      -0.000105047203
 52       0.000033764740
 53      -0.000033606100
 54       0.000033599340
 55      -0.000000255435
 56      -0.000000077814
 57       0.000000109177
 58      -0.000000425763
 59      -0.000000267777
 60      -0.000000149027
 61      -0.000000300189
 62       0.000001216484
 63      -0.000001473598
 64      -0.000000234431
 65      -0.000000945865
 66       0.000001763924
 67      -0.000002643620
 68       0.000006877291
 69       0.000000611299
 70       0.000001885201
 71      -0.000004397794