[Molden Format]
[Title]
 Molden file created by orca_2mkl for BaseName=/home/nikolayandreadi_1705/_scratch/HERDB_2/Gd_OH_cc

[Atoms] AU
Gd   1  64         -0.2612187332         0.3981709656        -0.4015138911 
O    2   8         -1.9236788434         3.8583917976        -0.1851648152 
O    3   8         -1.8785200579        -2.4507102340        -2.3949576439 
O    4   8          3.0441730572        -0.2993175018         1.4084846972 
H    5   1          4.6039435595        -0.6462031899         2.2549308271 
H    6   1         -2.6879747988         5.4906049513        -0.0378663323 
H    7   1         -2.6567754203        -3.7756784848        -3.3473361517 
[GTO]
  1 0
s   6 1.0 
  1133304.9414800000      2174.9610498235
   503691.0851020000      -577.4941628565
   223862.7044900000      1271.8793195317
    99494.5353290000       292.2852755405
    44219.7934790000       774.9724147105
    19653.2415460000       586.7258609135
s   1 1.0 
     8734.7740210000       643.9451069508
s   1 1.0 
     3882.1217870000       350.5193187461
s   1 1.0 
     1725.3874610000       190.7985502128
s   1 1.0 
      766.8388710000       103.8575758734
s   1 1.0 
      340.8172760000        56.5329037360
s   1 1.0 
      151.4743450000        30.7726150905
s   1 1.0 
       67.3219310000        16.7504899843
s   1 1.0 
       29.9208580000         9.1178118166
s   1 1.0 
       13.2981590000         4.9631080848
s   1 1.0 
        5.9102930000         2.7015738927
s   1 1.0 
        2.6267970000         1.4705506110
s   1 1.0 
        1.1674650000         0.8004661926
s   1 1.0 
        0.5188730000         0.4357183963
s   1 1.0 
        0.2306100000         0.2371748825
s   1 1.0 
        0.1024940000         0.1291022836
s   1 1.0 
        0.0455530000         0.0702745106
s   1 1.0 
        0.0202460000         0.0382529133
p   5 1.0 
    15432.8043060000      3126.8623215264
     6173.1217220000      1264.6366638851
     2469.2486890000      2002.5787782743
      987.6994760000      1963.6893411004
      395.0797900000      1867.4733471641
p   1 1.0 
      158.0319160000       798.6768471840
p   1 1.0 
       63.2127660000       254.0657253142
p   1 1.0 
       25.2851070000        80.8204162074
p   1 1.0 
       10.1140430000        25.7096451541
p   1 1.0 
        4.0456170000         8.1784507898
p   1 1.0 
        1.6182470000         2.6016334098
p   1 1.0 
        0.6472990000         0.8276014788
p   1 1.0 
        0.2589190000         0.2632661299
p   1 1.0 
        0.1035680000         0.0837475431
p   1 1.0 
        0.0414270000         0.0266406271
p   1 1.0 
        0.0165710000         0.0084747322
d   4 1.0 
     1092.7062230000      4841.5336151871
      397.3477180000      4644.8935401418
      144.4900790000      4335.5630527329
       52.5418470000      2336.0290078754
d   1 1.0 
       19.1061260000       497.7625276697
d   1 1.0 
        6.9476820000        84.7598081537
d   1 1.0 
        2.5264300000        14.4330396780
d   1 1.0 
        0.9187020000         2.4576823001
d   1 1.0 
        0.3340730000         0.4184971391
d   1 1.0 
        0.1214810000         0.0712622795
d   1 1.0 
        0.0441750000         0.0121347005
d   1 1.0 
        0.0160640000         0.0020663984
f   4 1.0 
       34.7127000000      1486.0079731034
       11.5709000000       452.7076001348
        3.8569670000        63.6295197498
        1.2856560000         3.8109128600
f   1 1.0 
        0.4285520000         0.8472430467
f   1 1.0 
        0.1428510000         0.0715298757

  2 0
s   6 1.0 
    27032.3826310000         1.4645050749
     4052.3871392000         1.8244031008
      922.3272271000         2.8547160967
      261.2407098900         4.3654874290
       85.3546413500         5.8940772662
       31.0350352400         6.2963020147
s   1 1.0 
       12.2608607300         4.6698272139
s   1 1.0 
        4.9987076000         2.3826123703
s   1 1.0 
        1.1703108200         0.8019291632
s   1 1.0 
        0.4647474100        -0.4011648063
s   1 1.0 
        0.1850453600         0.2010799377
p   4 1.0 
       63.2749548000         3.0898340730
       14.6270493800         3.3923831935
        4.4501223500         2.9482801524
        1.5275799600         1.7113350234
p   1 1.0 
        0.5293511800         0.6436057935
p   1 1.0 
        0.1747842100         0.1610897223
d   1 1.0 
        2.3140000000        12.3767310624
d   1 1.0 
        0.6450000000         1.3234257612
f   1 1.0 
        1.4280000000        12.7097950062

  3 0
s   6 1.0 
    27032.3826310000         1.4645050749
     4052.3871392000         1.8244031008
      922.3272271000         2.8547160967
      261.2407098900         4.3654874290
       85.3546413500         5.8940772662
       31.0350352400         6.2963020147
s   1 1.0 
       12.2608607300         4.6698272139
s   1 1.0 
        4.9987076000         2.3826123703
s   1 1.0 
        1.1703108200         0.8019291632
s   1 1.0 
        0.4647474100        -0.4011648063
s   1 1.0 
        0.1850453600         0.2010799377
p   4 1.0 
       63.2749548000         3.0898340730
       14.6270493800         3.3923831935
        4.4501223500         2.9482801524
        1.5275799600         1.7113350234
p   1 1.0 
        0.5293511800         0.6436057935
p   1 1.0 
        0.1747842100         0.1610897223
d   1 1.0 
        2.3140000000        12.3767310624
d   1 1.0 
        0.6450000000         1.3234257612
f   1 1.0 
        1.4280000000        12.7097950062

  4 0
s   6 1.0 
    27032.3826310000         1.4645050749
     4052.3871392000         1.8244031008
      922.3272271000         2.8547160967
      261.2407098900         4.3654874290
       85.3546413500         5.8940772662
       31.0350352400         6.2963020147
s   1 1.0 
       12.2608607300         4.6698272139
s   1 1.0 
        4.9987076000         2.3826123703
s   1 1.0 
        1.1703108200         0.8019291632
s   1 1.0 
        0.4647474100        -0.4011648063
s   1 1.0 
        0.1850453600         0.2010799377
p   4 1.0 
       63.2749548000         3.0898340730
       14.6270493800         3.3923831935
        4.4501223500         2.9482801524
        1.5275799600         1.7113350234
p   1 1.0 
        0.5293511800         0.6436057935
p   1 1.0 
        0.1747842100         0.1610897223
d   1 1.0 
        2.3140000000        12.3767310624
d   1 1.0 
        0.6450000000         1.3234257612
f   1 1.0 
        1.4280000000        12.7097950062

  5 0
s   3 1.0 
       34.0613410000         0.2556300129
        5.1235746000         0.4613599287
        1.1646626000         0.6811215012
s   1 1.0 
        0.3272304100         0.3083545312
s   1 1.0 
        0.1030724100         0.1296483265
p   1 1.0 
        0.8000000000         1.0784563492

  6 0
s   3 1.0 
       34.0613410000         0.2556300129
        5.1235746000         0.4613599287
        1.1646626000         0.6811215012
s   1 1.0 
        0.3272304100         0.3083545312
s   1 1.0 
        0.1030724100         0.1296483265
p   1 1.0 
        0.8000000000         1.0784563492

  7 0
s   3 1.0 
       34.0613410000         0.2556300129
        5.1235746000         0.4613599287
        1.1646626000         0.6811215012
s   1 1.0 
        0.3272304100         0.3083545312
s   1 1.0 
        0.1030724100         0.1296483265
p   1 1.0 
        0.8000000000         1.0784563492

[5D]
[7F]
[9G]
[MO]
 Sym=     1a
 Ene= -1.85292662525492E+03
 Spin= Alpha
 Occup= 1.000000
  1       0.086997663240
  2       0.097960334840
  3       0.173997964598
  4       0.299847673045
  5       0.340956704189
  6       0.172342548374
  7       0.010166995803
  8       0.003230500424
  9      -0.002352763219
 10       0.001554281827
 11      -0.001049505462
 12       0.000709248666
 13      -0.000479156313
 14       0.000334679025
 15      -0.000259027099
 16       0.000209647861
 17      -0.000052214974
 18       0.000012606867
 19      -0.000000009814
 20       0.000000022942
 21      -0.000000007225
 22       0.000000006447
 23      -0.000000017231
 24       0.000000006271
 25      -0.000000003836
 26       0.000000011653
 27      -0.000000004643
 28       0.000000001758
 29      -0.000000009097
 30       0.000000004602
 31      -0.000000000025
 32       0.000000008871
 33      -0.000000005831
 34      -0.000000001947
 35      -0.000000010992
 36       0.000000008857
 37       0.000000003893
 38       0.000000019254
 39      -0.000000016113
 40      -0.000000006690
 41      -0.000000036970
 42       0.000000031217
 43       0.000000035854
 44       0.000000030836
 45      -0.000000058317
 46       0.000000071538
 47      -0.000000404036
 48       0.000000236826
 49      -0.000000012099
 50       0.000000064945
 51      -0.000000041242
 52       0.000000006438
 53      -0.000000021343
 54       0.000000009861
 55      -0.000000006334
 56       0.000000008670
 57       0.000000004818
 58      -0.000000002128
 59      -0.000000003401
 60       0.000000133054
 61      -0.000000183046
 62      -0.000000106613
 63       0.000000044084
 64       0.000000071323
 65      -0.000000324177
 66       0.000000446145
 67       0.000000259968
 68      -0.000000107297
 69      -0.000000173718
 70       0.000000697091
 71      -0.000000959760
 72      -0.000000559165
 73       0.000000230462
 74       0.000000373394
 75      -0.000001479795
 76       0.000002038851
 77       0.000001187441
 78      -0.000000488249
 79      -0.000000792077
 80       0.000002762639
 81      -0.000003808993
 82      -0.000002216306
 83       0.000000909693
 84       0.000001477522
 85      -0.000012995641
 86       0.000017934695
 87       0.000010422504
 88      -0.000004264891
 89      -0.000006946001
 90       0.000001357600
 91      -0.000001813395
 92      -0.000001062656
 93       0.000000480973
 94       0.000000754977
 95      -0.000000300382
 96       0.000000403336
 97       0.000000237865
 98      -0.000000105392
 99      -0.000000166015
100      -0.000000028043
101       0.000000065250
102      -0.000000201900
103       0.000000268165
104      -0.000000280526
105      -0.000000477795
106       0.000000135275
107       0.000000166914
108      -0.000000389019
109       0.000001204572
110      -0.000001600517
111       0.000001671843
112       0.000002850194
113      -0.000000805832
114      -0.000000720629
115       0.000001723855
116      -0.000005300533
117       0.000007011459
118      -0.000007294870
119      -0.000012516927
120       0.000003512806
121       0.000000193628
122      -0.000000897605
123       0.000001706842
124      -0.000005428350
125      -0.000012027726
126      -0.000035362436
127      -0.000000296822
128       0.000000620745
129       0.000000043332
130       0.000001712286
131      -0.000003581401
132      -0.000000249322
133      -0.000007393734
134       0.000015499430
135       0.000001061325
136       0.000000127061
137      -0.000000150586
138      -0.000000089761
139       0.000000052844
140       0.000000083188
141      -0.000001080670
142       0.000000373513
143       0.000000369956
144      -0.000000927835
145      -0.000001216924
146       0.000000022407
147      -0.000000058442
148       0.000000108763
149       0.000000060658
150      -0.000000014175
151       0.000000127791
152      -0.000000028459
153       0.000000189423
154      -0.000000878398
155       0.000001671663
156      -0.000005345042
157      -0.000011916186
158      -0.000035331885
159      -0.000000290386
160      -0.000000501103
161      -0.000000355741
162       0.000001747662
163       0.000003011863
164       0.000002137928
165      -0.000007080783
166      -0.000012663240
167      -0.000008789767
168       0.000000101999
169      -0.000000149971
170      -0.000000093390
171       0.000000034601
172       0.000000040879
173      -0.000000428476
174       0.000000966033
175       0.000001215633
176      -0.000000560888
177       0.000000653653
178      -0.000000104456
179       0.000000032068
180       0.000000012096
181      -0.000000052290
182       0.000000117127
183       0.000000050936
184       0.000000017350
185       0.000000188723
186      -0.000000875200
187       0.000001665834
188      -0.000005333077
189      -0.000011908533
190      -0.000035372293
191       0.000000584407
192      -0.000000122243
193       0.000000319890
194      -0.000003540607
195       0.000000740780
196      -0.000001939199
197       0.000014598134
198      -0.000003246297
199       0.000007949630
200       0.000000099748
201      -0.000000152074
202      -0.000000081288
203       0.000000021645
204       0.000000050687
205      -0.000000516200
206       0.000001437627
207       0.000000026172
208       0.000000811510
209      -0.000000520537
210       0.000000100329
211      -0.000000004404
212      -0.000000026228
213      -0.000000116978
214       0.000000032929
215       0.000000039054
216      -0.000000056739
217      -0.000000192151
218      -0.000000965340
219      -0.000001474315
220      -0.000000413708
221       0.000000084661
222      -0.000000230586
223      -0.000000222639
224      -0.000001264857
225      -0.000001438330
226       0.000000180745
227      -0.000000345498
228       0.000000020770
229      -0.000000197152
230      -0.000001003836
231      -0.000001476419
232       0.000000175261
233       0.000000372367
234       0.000000227468
 Sym=     1a
 Ene= -3.10540347653702E+02
 Spin= Alpha
 Occup= 1.000000
  1      -0.032481119323
  2      -0.040293189568
  3      -0.072581967163
  4      -0.147582117010
  5      -0.205319657754
  6      -0.084145193484
  7       0.468434611096
  8       0.603405037262
  9       0.098300870339
 10       0.004150385872
 11      -0.003636892196
 12       0.002607792597
 13      -0.001915589341
 14       0.001390500966
 15      -0.001088368923
 16       0.000887075413
 17      -0.000220567373
 18       0.000053277222
 19      -0.000000104906
 20       0.000000139206
 21       0.000000003645
 22      -0.000000157609
 23       0.000000217503
 24      -0.000000002263
 25      -0.000000138652
 26       0.000000209790
 27      -0.000000014674
 28      -0.000000050805
 29       0.000000095682
 30      -0.000000018747
 31       0.000000015199
 32      -0.000000008365
 33      -0.000000007009
 34      -0.000000014453
 35      -0.000000027529
 36       0.000000030125
 37       0.000000020633
 38       0.000000067911
 39      -0.000000062355
 40      -0.000000026411
 41      -0.000000155728
 42       0.000000129330
 43       0.000000139093
 44       0.000000153802
 45      -0.000000250570
 46       0.000000309137
 47      -0.000001723728
 48       0.000001007868
 49      -0.000000053634
 50       0.000000279527
 51      -0.000000176021
 52       0.000000028012
 53      -0.000000091867
 54       0.000000042132
 55       0.000000194528
 56      -0.000000224186
 57      -0.000000144127
 58       0.000000091557
 59       0.000000123402
 60       0.000000174976
 61      -0.000000252618
 62      -0.000000143373
 63       0.000000050499
 64       0.000000088616
 65      -0.000001129611
 66       0.000001566115
 67       0.000000907675
 68      -0.000000366662
 69      -0.000000600182
 70       0.000002710724
 71      -0.000003740014
 72      -0.000002175361
 73       0.000000891209
 74       0.000001448479
 75      -0.000006317531
 76       0.000008712002
 77       0.000005071280
 78      -0.000002079518
 79      -0.000003378078
 80       0.000011916225
 81      -0.000016443989
 82      -0.000009563074
 83       0.000003914649
 84       0.000006366593
 85      -0.000055342714
 86       0.000076384094
 87       0.000044383825
 88      -0.000018156693
 89      -0.000029576556
 90       0.000005797740
 91      -0.000007743585
 92      -0.000004537538
 93       0.000002054334
 94       0.000003224579
 95      -0.000001287005
 96       0.000001728002
 97       0.000001019011
 98      -0.000000451613
 99      -0.000000711359
100      -0.000000129308
101       0.000000297286
102      -0.000000921742
103       0.000001226297
104      -0.000001284884
105      -0.000002183076
106       0.000000619583
107       0.000000733822
108      -0.000001705842
109       0.000005284624
110      -0.000007029532
111       0.000007342731
112       0.000012509733
113      -0.000003538646
114      -0.000003072905
115       0.000007354064
116      -0.000022608017
117       0.000029910855
118      -0.000031114610
119      -0.000053391191
120       0.000014981142
121       0.000000721791
122      -0.000003587301
123       0.000007132998
124      -0.000023261415
125      -0.000051340239
126      -0.000150147826
127      -0.000001301990
128       0.000002721787
129       0.000000188725
130       0.000007194668
131      -0.000015044177
132      -0.000001043009
133      -0.000031478976
134       0.000065998181
135       0.000004526322
136       0.000000604152
137      -0.000000627032
138      -0.000000390495
139       0.000000298526
140       0.000000444761
141      -0.000004806007
142       0.000001562707
143       0.000001615290
144      -0.000004180159
145      -0.000005463028
146       0.000000101346
147      -0.000000272843
148       0.000000513775
149       0.000000258623
150      -0.000000050548
151       0.000000618384
152      -0.000000137641
153       0.000000706869
154      -0.000003513377
155       0.000006992451
156      -0.000022920905
157      -0.000050878234
158      -0.000150019909
159      -0.000001273740
160      -0.000002202007
161      -0.000001561362
162       0.000007345533
163       0.000012667042
164       0.000008987850
165      -0.000030146083
166      -0.000053917147
167      -0.000037424605
168       0.000000442586
169      -0.000000684327
170      -0.000000487825
171       0.000000192100
172       0.000000095302
173      -0.000001860241
174       0.000004272244
175       0.000005463164
176      -0.000002527243
177       0.000003020194
178      -0.000000484143
179       0.000000143156
180       0.000000068186
181      -0.000000262580
182       0.000000559426
183       0.000000269580
184       0.000000074922
185       0.000000704429
186      -0.000003501290
187       0.000006969641
188      -0.000022873836
189      -0.000050850255
190      -0.000150195590
191       0.000002567224
192      -0.000000537513
193       0.000001405242
194      -0.000014890322
195       0.000003114557
196      -0.000008155856
197       0.000062155188
198      -0.000013830341
199       0.000033844387
200       0.000000443408
201      -0.000000739685
202      -0.000000320439
203       0.000000003809
204       0.000000252627
205      -0.000002267670
206       0.000006421494
207       0.000000041035
208       0.000003724182
209      -0.000002337258
210       0.000000469043
211      -0.000000025494
212      -0.000000107432
213      -0.000000562407
214       0.000000170651
215       0.000000213970
216      -0.000000272821
217      -0.000000929770
218      -0.000004534556
219      -0.000006256919
220      -0.000001581087
221       0.000000321096
222      -0.000000883646
223      -0.000001057859
224      -0.000005812463
225      -0.000006104916
226       0.000000681177
227      -0.000001281599
228       0.000000106325
229      -0.000000950742
230      -0.000004698154
231      -0.000006266288
232       0.000000654813
233       0.000001433607
234       0.000000857819
 Sym=     1a
 Ene= -2.76783599619098E+02
 Spin= Alpha
 Occup= 1.000000
  1       0.000000000159
  2       0.000000000579
  3      -0.000000000684
  4       0.000000004939
  5      -0.000000008092
  6       0.000000023944
  7      -0.000000067261
  8       0.000000046745
  9      -0.000000046025
 10       0.000000243023
 11      -0.000000449510
 12       0.000000704165
 13      -0.000001101074
 14       0.000001305153
 15       0.000001826666
 16      -0.000008614475
 17       0.000001640970
 18      -0.000000528691
 19       0.178000873714
 20       0.099491799217
 21      -0.290065335104
 22       0.240776270195
 23       0.134579507653
 24      -0.392362383487
 25       0.152994218403
 26       0.085514560718
 27      -0.249315182749
 28       0.007985575618
 29       0.004463611578
 30      -0.013013011260
 31       0.002794075335
 32       0.001561424566
 33      -0.004553271601
 34      -0.001914940485
 35      -0.001069794951
 36       0.003120761804
 37       0.001143623133
 38       0.000638219802
 39      -0.001864046966
 40      -0.000686313998
 41      -0.000381765182
 42       0.001119218038
 43       0.000402085290
 44       0.000222290883
 45      -0.000656376695
 46      -0.000221790158
 47      -0.000128874282
 48       0.000361574449
 49       0.000101541785
 50       0.000057946075
 51      -0.000165441092
 52      -0.000032363118
 53      -0.000018542694
 54       0.000052676748
 55       0.000000005186
 56       0.000000035884
 57      -0.000000057117
 58      -0.000000042036
 59       0.000000019464
 60       0.000000024864
 61      -0.000000003939
 62      -0.000000005584
 63       0.000000001896
 64       0.000000044713
 65      -0.000000051827
 66       0.000000025250
 67      -0.000000085880
 68      -0.000000059097
 69      -0.000000100770
 70       0.000000138513
 71      -0.000000038306
 72       0.000000141294
 73       0.000000101840
 74       0.000000265291
 75      -0.000000308246
 76       0.000000079792
 77      -0.000000298356
 78      -0.000000213569
 79      -0.000000589892
 80       0.000000611556
 81      -0.000000125899
 82       0.000000512608
 83       0.000000396066
 84       0.000001168109
 85       0.000001443067
 86      -0.000000312040
 87      -0.000000069915
 88       0.000000766137
 89       0.000002185305
 90      -0.000000192700
 91       0.000000038372
 92      -0.000000119718
 93      -0.000000163013
 94      -0.000000311545
 95       0.000000109308
 96      -0.000000020033
 97       0.000000049699
 98       0.000000073109
 99       0.000000183536
100      -0.000000268878
101       0.000001211387
102       0.000000650945
103      -0.000000459989
104      -0.000000766820
105      -0.000000058305
106      -0.000000250561
107       0.000001346254
108      -0.000005938946
109      -0.000003101706
110       0.000002230549
111       0.000003709073
112       0.000000366640
113       0.000001164435
114      -0.000000841724
115       0.000004810831
116       0.000003398653
117      -0.000002136366
118      -0.000003154754
119       0.000000767407
120      -0.000001381299
121      -0.000000021290
122       0.000000104613
123      -0.000000195814
124       0.000000710361
125       0.000002836884
126       0.000003990653
127       0.000000822802
128       0.000000687617
129      -0.000001464192
130      -0.000001402700
131      -0.000002752784
132       0.000003358675
133       0.000008728553
134      -0.000002989167
135      -0.000010006561
136       0.000000351077
137      -0.000001506911
138       0.000002846859
139       0.000001896763
140      -0.000001268694
141      -0.000001227578
142       0.000005724659
143      -0.000010800541
144      -0.000007042725
145       0.000004933745
146      -0.000001954818
147       0.000000222263
148       0.000000759053
149      -0.000001425861
150      -0.000002071777
151      -0.000000103931
152      -0.000002264173
153       0.000000001655
154      -0.000000007099
155       0.000000009345
156      -0.000000043495
157      -0.000000495831
158      -0.000000014468
159       0.000000954604
160       0.000000585511
161      -0.000001457573
162      -0.000002509505
163      -0.000001772272
164       0.000003270067
165       0.000005285691
166       0.000002162419
167      -0.000010391093
168      -0.000002917063
169      -0.000000320632
170      -0.000001802057
171       0.000000000355
172       0.000001952134
173       0.000011134014
174       0.000001235484
175       0.000006880142
176      -0.000000010093
177      -0.000007449371
178       0.000000723610
179       0.000001548320
180       0.000003022520
181      -0.000000937366
182      -0.000000039814
183      -0.000001480636
184       0.000000801513
185      -0.000000001758
186       0.000000007542
187      -0.000000009337
188       0.000000011866
189       0.000000396951
190       0.000001207942
191       0.000000984391
192       0.000000514857
193      -0.000001471536
194      -0.000002684942
195      -0.000001190551
196       0.000003414607
197       0.000004402776
198       0.000003607457
199      -0.000010461871
200       0.000002628530
201       0.000001828305
202      -0.000001118260
203      -0.000001954088
204      -0.000000588728
205      -0.000010067654
206      -0.000006965020
207       0.000004269479
208       0.000007486498
209       0.000002235900
210       0.000000270574
211       0.000003230480
212      -0.000000742480
213       0.000000359713
214      -0.000001208967
215       0.000001753501
216       0.000000172966
217      -0.000000056524
218       0.000000960746
219       0.000000474347
220      -0.000003649346
221      -0.000001882280
222       0.000005491789
223       0.000000043744
224       0.000004613895
225       0.000001479253
226      -0.000002859505
227      -0.000003128172
228       0.000005470548
229      -0.000000008453
230      -0.000001393741
231      -0.000000344146
232      -0.000003631784
233      -0.000002247828
234       0.000005370778
 Sym=     1a
 Ene= -2.76783590004725E+02
 Spin= Alpha
 Occup= 1.000000
  1       0.000000005993
  2       0.000000007541
  3       0.000000013343
  4       0.000000028376
  5       0.000000036763
  6       0.000000019628
  7      -0.000000113635
  8      -0.000000123988
  9       0.000000058054
 10      -0.000000012861
 11       0.000000002032
 12      -0.000000043819
 13       0.000000146306
 14      -0.000000598308
 15       0.000004707253
 16      -0.000012879268
 17       0.000002046041
 18      -0.000000523556
 19      -0.277018144964
 20      -0.091678774305
 21      -0.201440012487
 22      -0.374711500140
 23      -0.124010255131
 24      -0.272479926605
 25      -0.238102074742
 26      -0.078799556374
 27      -0.173141322807
 28      -0.012416659343
 29      -0.004109270343
 30      -0.009028959895
 31      -0.004369738421
 32      -0.001446169336
 33      -0.003177736816
 34       0.003019553532
 35       0.000999335315
 36       0.002196072407
 37      -0.001853494118
 38      -0.000613439021
 39      -0.001348435149
 40       0.001206923599
 41       0.000399491226
 42       0.000878820519
 43      -0.000816121496
 44      -0.000270173265
 45      -0.000595109487
 46       0.000216660881
 47       0.000068005822
 48       0.000155430963
 49      -0.000120369769
 50      -0.000039058907
 51      -0.000086994447
 52       0.000030576334
 53       0.000009881589
 54       0.000021992441
 55      -0.000000014680
 56       0.000000101458
 57      -0.000000199055
 58       0.000000253609
 59      -0.000000188320
 60       0.000000121190
 61      -0.000000957155
 62       0.000002070555
 63      -0.000002556501
 64       0.000001931318
 65      -0.000000370074
 66       0.000003109484
 67      -0.000006666523
 68       0.000008226558
 69      -0.000006245642
 70       0.000000886854
 71      -0.000007356449
 72       0.000015803588
 73      -0.000019499252
 74       0.000014795099
 75      -0.000001963774
 76       0.000016297731
 77      -0.000035005076
 78       0.000043198875
 79      -0.000032766510
 80       0.000003797281
 81      -0.000030570220
 82       0.000065758958
 83      -0.000081035402
 84       0.000061672768
 85       0.000002640739
 86      -0.000022014483
 87       0.000040650939
 88      -0.000052607638
 89       0.000039075646
 90      -0.000000428603
 91       0.000004454267
 92      -0.000008420880
 93       0.000010870080
 94      -0.000007952489
 95       0.000000427712
 96      -0.000003301871
 97       0.000006886948
 98      -0.000008544717
 99       0.000006522073
100      -0.000005380481
101       0.000000793383
102       0.000001171516
103       0.000002029288
104       0.000001952165
105       0.000000474282
106       0.000002001143
107       0.000033030051
108      -0.000004904557
109      -0.000007156026
110      -0.000012481136
111      -0.000011971102
112      -0.000002848115
113      -0.000012274366
114       0.000008032410
115      -0.000001188376
116      -0.000000743689
117      -0.000003027010
118      -0.000001817286
119       0.000000215024
120      -0.000003749862
121      -0.000000049998
122       0.000000271147
123      -0.000000611152
124       0.000002238702
125       0.000000373301
126      -0.000000646873
127      -0.000000324863
128      -0.000001243682
129      -0.000000629531
130      -0.000001245329
131       0.000007313929
132       0.000001844436
133      -0.000015018259
134       0.000008089897
135      -0.000006050304
136       0.000000008355
137      -0.000000555482
138       0.000001438110
139      -0.000001830396
140       0.000001203636
141       0.000000467186
142       0.000002347342
143      -0.000006138902
144       0.000008217273
145      -0.000004433584
146      -0.000001226038
147      -0.000000460221
148      -0.000000357315
149      -0.000000954289
150      -0.000000947575
151       0.000000128773
152       0.000002423698
153      -0.000000155591
154       0.000001005803
155      -0.000002873005
156       0.000011589208
157      -0.000030932589
158      -0.000043984023
159       0.000004314797
160       0.000008810731
161       0.000005728880
162      -0.000036378180
163      -0.000066552589
164      -0.000045799375
165      -0.000097311188
166      -0.000152455356
167      -0.000114239004
168      -0.000000592587
169       0.000000280839
170       0.000002190822
171      -0.000002180391
172       0.000001238593
173       0.000003424924
174      -0.000003569655
175      -0.000013829294
176       0.000011823699
177      -0.000008712632
178       0.000003866811
179      -0.000000594978
180      -0.000001136301
181       0.000004170557
182      -0.000005101533
183      -0.000004398342
184      -0.000001063691
185       0.000000137289
186      -0.000000937216
187       0.000002835836
188      -0.000011947671
189       0.000035301179
190       0.000053856081