[Molden Format]
[Title]
 Molden file created by orca_2mkl for BaseName=/home/nikolayandreadi_2125/_scratch/F_cc/Tb_F_cc

[Atoms] AU
Tb   1  65          0.1715625665         0.3414300487        -0.6082140254 
F    2   9         -1.3771398098        -2.1311669934        -3.1011785358 
F    3   9         -1.3711323704         3.7247201298         0.3138249293 
F    4   9          3.9001452966        -0.0633417303         0.1538161484 
[GTO]
  1 0
s   6 1.0 
  1169335.0320500000      2257.9371502123
   519704.4586890000      -602.2483363036
   230979.7594170000      1317.3870848776
   102657.6708520000       297.4045038601
    45625.6314900000       796.7055554523
    20278.0584400000       597.4180684830
s   1 1.0 
     9012.4704180000       659.2391358096
s   1 1.0 
     4005.5424080000       358.8443336015
s   1 1.0 
     1780.2410700000       195.3301142957
s   1 1.0 
      791.2182530000       106.3242469495
s   1 1.0 
      351.6525570000        57.8755894164
s   1 1.0 
      156.2900250000        31.5034805347
s   1 1.0 
       69.4622330000        17.1483227009
s   1 1.0 
       30.8721040000         9.3343646701
s   1 1.0 
       13.7209350000         5.0809845280
s   1 1.0 
        6.0981930000         2.7657375498
s   1 1.0 
        2.7103080000         1.5054768355
s   1 1.0 
        1.2045810000         0.8194776225
s   1 1.0 
        0.5353700000         0.4460675345
s   1 1.0 
        0.2379420000         0.2428082411
s   1 1.0 
        0.1057520000         0.1321680658
s   1 1.0 
        0.0470010000         0.0719433101
s   1 1.0 
        0.0208890000         0.0391605091
p   5 1.0 
    15962.9363470000      3334.0319210996
     6385.1745390000      1330.9849615702
     2554.0698150000      2106.5012424578
     1021.6279260000      2051.4716840897
      408.6511700000      1945.7955945689
p   1 1.0 
      163.4604680000       833.1170267169
p   1 1.0 
       65.3841870000       265.0214329808
p   1 1.0 
       26.1536750000        84.3055160641
p   1 1.0 
       10.4614700000        26.8182836797
p   1 1.0 
        4.1845880000         8.5311184025
p   1 1.0 
        1.6738350000         2.7138190943
p   1 1.0 
        0.6695340000         0.8632883556
p   1 1.0 
        0.2678140000         0.2746196966
p   1 1.0 
        0.1071250000         0.0873581909
p   1 1.0 
        0.0428500000         0.0277893649
p   1 1.0 
        0.0171400000         0.0088400274
d   4 1.0 
     1138.5148960000      5200.0410121432
      414.0054170000      4972.1062622461
      150.5474240000      4645.8865053976
       54.7445180000      2512.1027240162
d   1 1.0 
       19.9070970000       534.8524205797
d   1 1.0 
        7.2389450000        91.0755532793
d   1 1.0 
        2.6323430000        15.5084866418
d   1 1.0 
        0.9572160000         2.6408120610
d   1 1.0 
        0.3480780000         0.4496805357
d   1 1.0 
        0.1265740000         0.0765725248
d   1 1.0 
        0.0460270000         0.0130389390
d   1 1.0 
        0.0167370000         0.0022202706
f   4 1.0 
       32.1811360000      1485.3691980056
       10.7270450000       408.9486275325
        3.5756820000        52.1705547224
        1.1918940000         3.1163730569
f   1 1.0 
        0.3972980000         0.7145159560
f   1 1.0 
        0.1324330000         0.0603241996

  2 0
s   6 1.0 
    35479.1004410000         1.9229128581
     5318.4728983000         2.2734773358
     1210.4810975000         3.4747482552
      342.8551814000         5.2879612972
      112.0194318100         7.1666332516
       40.7147402500         7.7556346254
s   1 1.0 
       16.0396781100         5.7122450312
s   1 1.0 
        6.5038186700         2.9025947842
s   1 1.0 
        1.5440477500         0.9872011154
s   1 1.0 
        0.6122345300        -0.4932856223
s   1 1.0 
        0.2402798000         0.2445952611
p   4 1.0 
       80.2339004800         4.2755032106
       18.5940107400         4.7314752302
        5.6867902700         4.0864798013
        1.9511006300         2.2989954518
p   1 1.0 
        0.6697021100         0.8635593126
p   1 1.0 
        0.2165130000         0.2105208234
d   1 1.0 
        3.1070000000        20.7284714039
d   1 1.0 
        0.8550000000         2.1672588463
f   1 1.0 
        1.9170000000        24.6547062912

  3 0
s   6 1.0 
    35479.1004410000         1.9229128581
     5318.4728983000         2.2734773358
     1210.4810975000         3.4747482552
      342.8551814000         5.2879612972
      112.0194318100         7.1666332516
       40.7147402500         7.7556346254
s   1 1.0 
       16.0396781100         5.7122450312
s   1 1.0 
        6.5038186700         2.9025947842
s   1 1.0 
        1.5440477500         0.9872011154
s   1 1.0 
        0.6122345300        -0.4932856223
s   1 1.0 
        0.2402798000         0.2445952611
p   4 1.0 
       80.2339004800         4.2755032106
       18.5940107400         4.7314752302
        5.6867902700         4.0864798013
        1.9511006300         2.2989954518
p   1 1.0 
        0.6697021100         0.8635593126
p   1 1.0 
        0.2165130000         0.2105208234
d   1 1.0 
        3.1070000000        20.7284714039
d   1 1.0 
        0.8550000000         2.1672588463
f   1 1.0 
        1.9170000000        24.6547062912

  4 0
s   6 1.0 
    35479.1004410000         1.9229128581
     5318.4728983000         2.2734773358
     1210.4810975000         3.4747482552
      342.8551814000         5.2879612972
      112.0194318100         7.1666332516
       40.7147402500         7.7556346254
s   1 1.0 
       16.0396781100         5.7122450312
s   1 1.0 
        6.5038186700         2.9025947842
s   1 1.0 
        1.5440477500         0.9872011154
s   1 1.0 
        0.6122345300        -0.4932856223
s   1 1.0 
        0.2402798000         0.2445952611
p   4 1.0 
       80.2339004800         4.2755032106
       18.5940107400         4.7314752302
        5.6867902700         4.0864798013
        1.9511006300         2.2989954518
p   1 1.0 
        0.6697021100         0.8635593126
p   1 1.0 
        0.2165130000         0.2105208234
d   1 1.0 
        3.1070000000        20.7284714039
d   1 1.0 
        0.8550000000         2.1672588463
f   1 1.0 
        1.9170000000        24.6547062912

[5D]
[7F]
[9G]
[MO]
 Sym=     1a
 Ene= -1.91778173127320E+03
 Spin= Alpha
 Occup= 1.000000
  1       0.088673609084
  2       0.099133512572
  3       0.174812296832
  4       0.300058161789
  5       0.339540870608
  6       0.171170843650
  7       0.009937328017
  8       0.003259238496
  9      -0.002373261096
 10       0.001567715070
 11      -0.001055839523
 12       0.000709857414
 13      -0.000473162543
 14       0.000317643014
 15      -0.000215522632
 16       0.000136104315
 17      -0.000048528786
 18       0.000012472179
 19      -0.000000109733
 20      -0.000000086390
 21       0.000000135152
 22       0.000000084881
 23       0.000000077102
 24      -0.000000120059
 25      -0.000000071782
 26      -0.000000062889
 27       0.000000099998
 28       0.000000079981
 29       0.000000070870
 30      -0.000000114722
 31      -0.000000110651
 32      -0.000000098835
 33       0.000000161909
 34       0.000000174052
 35       0.000000155978
 36      -0.000000256561
 37      -0.000000303349
 38      -0.000000271979
 39       0.000000444214
 40       0.000000513085
 41       0.000000464341
 42      -0.000000749686
 43      -0.000000704435
 44      -0.000000688103
 45       0.000001133381
 46       0.000001236601
 47       0.000001268953
 48      -0.000002087349
 49      -0.000000272447
 50      -0.000000225977
 51       0.000000354888
 52       0.000000056382
 53       0.000000044804
 54      -0.000000067966
 55      -0.000000078149
 56       0.000000047835
 57       0.000000248505
 58      -0.000000133752
 59      -0.000000002102
 60       0.000000169807
 61      -0.000000133435
 62      -0.000000344738
 63       0.000000086230
 64       0.000000056585
 65      -0.000000320827
 66       0.000000270599
 67       0.000000527642
 68      -0.000000033449
 69      -0.000000139626
 70       0.000000626812
 71      -0.000000540990
 72      -0.000000946147
 73      -0.000000023033
 74       0.000000295229
 75      -0.000001208727
 76       0.000001049239
 77       0.000001773580
 78       0.000000096120
 79      -0.000000582924
 80       0.000001917102
 81      -0.000001673350
 82      -0.000002788430
 83      -0.000000179178
 84       0.000000934324
 85      -0.000004487180
 86       0.000003949762
 87       0.000006537254
 88       0.000000421598
 89      -0.000002201600
 90       0.000000356122
 91      -0.000000293633
 92      -0.000000581041
 93       0.000000032744
 94       0.000000151959
 95      -0.000000041986
 96       0.000000031594
 97       0.000000077223
 98      -0.000000013519
 99      -0.000000014876
100      -0.000000065076
101      -0.000000118240
102      -0.000000158240
103       0.000000080338
104      -0.000000222179
105      -0.000000361337
106       0.000000098711
107       0.000000341784
108       0.000000613136
109       0.000000819533
110      -0.000000420859
111       0.000001169682
112       0.000001891924
113      -0.000000515514
114      -0.000000972523
115      -0.000001718674
116      -0.000002344620
117       0.000001227518
118      -0.000003534070
119      -0.000005521709
120       0.000001481267
121       0.000000163902
122      -0.000000752028
123       0.000001412565
124      -0.000003922105
125      -0.000007327765
126      -0.000013214033
127      -0.000000277103
128      -0.000000474288
129      -0.000000476600
130       0.000001152661
131       0.000001954126
132       0.000001971892
133      -0.000001412155
134      -0.000002815972
135      -0.000002894855
136      -0.000000005370
137      -0.000000189757
138      -0.000000289830
139       0.000000065210
140      -0.000000122980
141       0.000000128761
142       0.000000910723
143       0.000001413630
144      -0.000000364507
145       0.000000729603
146      -0.000000070999
147       0.000000065127
148       0.000000104789
149      -0.000000076942
150       0.000000140324
151       0.000000079408
152      -0.000000003620
153       0.000000162673
154      -0.000000746734
155       0.000001403918
156      -0.000003916272
157      -0.000007342483
158      -0.000013200003
159      -0.000000271918
160       0.000000644306
161       0.000000177536
162       0.000001147613
163      -0.000002693343
164      -0.000000735649
165      -0.000001365696
166       0.000003899073
167       0.000001036530
168       0.000000167913
169       0.000000012098
170      -0.000000168913
171       0.000000164613
172       0.000000219526
173      -0.000000818954
174      -0.000000183976
175       0.000000781018
176      -0.000000913938
177      -0.000001141839
178       0.000000073358
179      -0.000000030791
180       0.000000085402
181       0.000000070899
182       0.000000065964
183       0.000000147800
184      -0.000000049794
185       0.000000160665
186      -0.000000737830
187       0.000001388361
188      -0.000003888177
189      -0.000007300244
190      -0.000012981753
191       0.000000694669
192      -0.000000068602
193       0.000000135183
194      -0.000002941901
195       0.000000293187
196      -0.000000572804
197       0.000004095226
198      -0.000000308896
199       0.000000678326
200       0.000000172500
201      -0.000000133704
202      -0.000000038432
203      -0.000000260030
204       0.000000072281
205      -0.000000857335
206       0.000000662942
207       0.000000069939
208       0.000001425340
209      -0.000000356327
210       0.000000056792
211       0.000000101246
212      -0.000000003407
213      -0.000000073433
214       0.000000010773
215       0.000000144896
216      -0.000000048649
 Sym=     1a
 Ene= -3.22973390495701E+02
 Spin= Alpha
 Occup= 1.000000
  1      -0.033254113175
  2      -0.040994350430
  3      -0.073262956076
  4      -0.148384358493
  5      -0.204818523667
  6      -0.080818988298
  7       0.472618060232
  8       0.600157101567
  9       0.095485249371
 10       0.004254426976
 11      -0.003745820571
 12       0.002665054965
 13      -0.001922110001
 14       0.001337851037
 15      -0.000915497200
 16       0.000580978773
 17      -0.000207567333
 18       0.000053427822
 19      -0.000000895867
 20      -0.000000018933
 21       0.000000092966
 22      -0.000001307945
 23      -0.000000097509
 24       0.000000240661
 25      -0.000001230214
 26      -0.000000258370
 27       0.000000472090
 28      -0.000000453035
 29      -0.000000184400
 30       0.000000276008
 31      -0.000000199594
 32      -0.000000193807
 33       0.000000334140
 34       0.000000634929
 35       0.000000570182
 36      -0.000000940813
 37      -0.000001229940
 38      -0.000001089689
 39       0.000001776244
 40       0.000002188037
 41       0.000001943976
 42      -0.000003125175
 43      -0.000003092264
 44      -0.000002966825
 45       0.000004862202
 46       0.000005292261
 47       0.000005420587
 48      -0.000008908689
 49      -0.000001159417
 50      -0.000000961675
 51       0.000001508622
 52       0.000000239790
 53       0.000000190387
 54      -0.000000288223
 55      -0.000010094378
 56       0.000005859489
 57       0.000034053237
 58      -0.000019342397
 59       0.000000248272
 60      -0.000001040291
 61       0.000000573964
 62       0.000003777219
 63      -0.000002272697
 64       0.000000089427
 65      -0.000000786262
 66       0.000000745246
 67       0.000000700818
 68       0.000000537179
 69      -0.000000494773
 70       0.000002289272
 71      -0.000002020081
 72      -0.000003116270
 73      -0.000000437768
 74       0.000001163688
 75      -0.000005129852
 76       0.000004465916
 77       0.000007389958
 78       0.000000548830
 79      -0.000002506053
 80       0.000008281025
 81      -0.000007232417
 82      -0.000011939441
 83      -0.000000879923
 84       0.000004057565
 85      -0.000019186152
 86       0.000016892767
 87       0.000027898038
 88       0.000001856891
 89      -0.000009426766
 90       0.000001501874
 91      -0.000001239011
 92      -0.000002444286
 93       0.000000131788
 94       0.000000642561
 95      -0.000000173717
 96       0.000000130580
 97       0.000000318167
 98      -0.000000054650
 99      -0.000000061811
100      -0.000000305007
101      -0.000000560228
102      -0.000000757027
103       0.000000376857
104      -0.000001049853
105      -0.000001708400
106       0.000000466531
107       0.000001525295
108       0.000002737257
109       0.000003649733
110      -0.000001876167
111       0.000005202154
112       0.000008429731
113      -0.000002297909
114      -0.000004185063
115      -0.000007397890
116      -0.000010085864
117       0.000005281050
118      -0.000015198902
119      -0.000023756973
120       0.000006373165
121       0.000000584975
122      -0.000002934016
123       0.000005806773
124      -0.000016644778
125      -0.000031058105
126      -0.000056329877
127      -0.000001216498
128      -0.000002082280
129      -0.000002092428
130       0.000004921592
131       0.000008357755
132       0.000008428030
133      -0.000005980038
134      -0.000011976890
135      -0.000012306953
136      -0.000000034884
137      -0.000000841781
138      -0.000001292549
139       0.000000298019
140      -0.000000561057
141       0.000000572577
142       0.000003964820
143       0.000006169048
144      -0.000001602297
145       0.000003195625
146      -0.000000320446
147       0.000000294047
148       0.000000475031
149      -0.000000351352
150       0.000000640723
151       0.000000363004
152      -0.000000016418
153       0.000000581079
154      -0.000002915434
155       0.000005775393
156      -0.000016629215
157      -0.000031130064
158      -0.000056272949
159      -0.000001194981
160       0.000002831566
161       0.000000780228
162       0.000004901862
163      -0.000011521100
164      -0.000003151334
165      -0.000005778605
166       0.000016577934
167       0.000004412191
168       0.000000747560
169       0.000000067665
170      -0.000000750115
171       0.000000747966
172       0.000000983449
173      -0.000003571310
174      -0.000000818811
175       0.000003409118
176      -0.000004007498
177      -0.000004984290
178       0.000000335576
179      -0.000000141541
180       0.000000388631
181       0.000000322249
182       0.000000305547
183       0.000000676443
184      -0.000000229361
185       0.000000575070
186      -0.000002886512
187       0.000005722638
188      -0.000016537235
189      -0.000030978403
190      -0.000055350624
191       0.000003061737
192      -0.000000302444
193       0.000000595970
194      -0.000012611967
195       0.000001256197
196      -0.000002456535
197       0.000017391213
198      -0.000001303753
199       0.000002874441
200       0.000000773412
201      -0.000000598978
202      -0.000000158656
203      -0.000001181043
204       0.000000322974
205      -0.000003754882
206       0.000002903263
207       0.000000290932
208       0.000006260047
209      -0.000001558567
210       0.000000262524
211       0.000000466042
212      -0.000000018036
213      -0.000000339594
214       0.000000053534
215       0.000000670532
216      -0.000000224219
 Sym=     1a
 Ene= -2.87555463737315E+02
 Spin= Alpha
 Occup= 1.000000
  1       0.000000004656
  2       0.000000006244
  3       0.000000008975
  4       0.000000026275
  5       0.000000017344
  6       0.000000041542
  7      -0.000000155465
  8      -0.000000035287
  9      -0.000000026419
 10       0.000000288245
 11      -0.000000560463
 12       0.000000930434
 13      -0.000001634114
 14       0.000002421737
 15      -0.000001249254
 16      -0.000001504021
 17       0.000000454381
 18      -0.000000074155
 19      -0.019398172475
 20      -0.304576035955
 21      -0.183002928511
 22      -0.026144166851
 23      -0.410496711259
 24      -0.246644804123
 25      -0.016564262056
 26      -0.260080008649
 27      -0.156267721419
 28      -0.000845027341
 29      -0.013267836244
 30      -0.007971871226
 31      -0.000305497666
 32      -0.004797013155
 33      -0.002882339420
 34       0.000210514120
 35       0.003305939584
 36       0.001986501538
 37      -0.000128023660
 38      -0.002011482967
 39      -0.001208845553
 40       0.000080568169
 41       0.001268309009
 42       0.000762462984
 43      -0.000050738957
 44      -0.000801489385
 45      -0.000482039934
 46       0.000026996120
 47       0.000422029011
 48       0.000254021243
 49      -0.000010844202
 50      -0.000168861319
 51      -0.000101492953
 52       0.000003421202
 53       0.000053396500
 54       0.000032084481
 55      -0.000000031388
 56       0.000000285243
 57      -0.000000012170
 58       0.000000005196
 59       0.000000498058
 60       0.000000837629
 61       0.000001058892
 62       0.000000595640
 63       0.000000333370
 64       0.000001880836
 65      -0.000003536928
 66      -0.000003475227
 67      -0.000002380013
 68      -0.000001489121
 69      -0.000006161257
 70       0.000008366631
 71       0.000008615557
 72       0.000005663973
 73       0.000003495434
 74       0.000015296823
 75      -0.000017690756
 76      -0.000018288902
 77      -0.000011942692
 78      -0.000007398697
 79      -0.000032501740
 80       0.000027023414
 81       0.000028041981
 82       0.000018188336
 83       0.000011331582
 84       0.000049869684
 85      -0.000008089144
 86      -0.000008802274
 87      -0.000006082102
 88      -0.000003343154
 89      -0.000015130890
 90      -0.000004615151
 91      -0.000004454298
 92      -0.000003019379
 93      -0.000001976932
 94      -0.000007942202
 95       0.000001525788
 96       0.000001480691
 97       0.000001010078
 98       0.000000650168
 99       0.000002632550
100      -0.000001086392
101       0.000001827373
102      -0.000000257491
103       0.000000159395
104       0.000001162993
105      -0.000002026394
106      -0.000000922984
107       0.000018585117
108      -0.000011728911
109      -0.000001978464
110       0.000016312532
111      -0.000009544484
112       0.000010666470
113      -0.000004470003
114      -0.000011065992
115       0.000005771251
116       0.000001604424
117      -0.000010639551
118       0.000005021395
119      -0.000004825193
120       0.000003594153
121      -0.000001403668
122       0.000007247801
123      -0.000014614855
124       0.000042101597
125       0.000053770815
126       0.000033731565
127       0.000006137764
128       0.000008387457
129       0.000009090727
130      -0.000023137078
131      -0.000033317075
132      -0.000035203778
133       0.000000458116
134      -0.000007632157
135      -0.000003842561
136       0.000001443935
137       0.000004510786
138       0.000005952419
139      -0.000001144910
140       0.000004255456
141      -0.000006198807
142      -0.000019896038
143      -0.000027932048
144       0.000006420838
145      -0.000019061842
146       0.000000992192
147      -0.000001595856
148      -0.000001700729
149       0.000000146466
150      -0.000002977697
151      -0.000001041916
152       0.000000941164
153       0.000001304884
154      -0.000006744974
155       0.000013629477
156      -0.000039573400
157      -0.000050555200
158      -0.000030129700
159      -0.000005942178
160       0.000011285221
161       0.000002568176
162       0.000022405904
163      -0.000044644524
164      -0.000010872670
165      -0.000000912251
166      -0.000007730773
167      -0.000005068460
168       0.000003652793
169       0.000001396931
170      -0.000002157028
171       0.000003740587
172       0.000005800708
173      -0.000016551412
174      -0.000006447487
175       0.000011355064
176      -0.000018354190
177      -0.000025765421
178       0.000000673921
179      -0.000001184311
180       0.000001875098
181       0.000000180889
182       0.000000899151
183       0.000003057898
184       0.000000506259
185       0.000000094810
186      -0.000000490986
187       0.000000995607
188      -0.000002921704
189      -0.000003680026
190      -0.000001787260
191       0.000000967104
192      -0.000001357418
193      -0.000000533339
194      -0.000003831063
195       0.000003449997
196       0.000000984369
197      -0.000000607546
198      -0.000004241193
199      -0.000002629047
200       0.000000692800
201       0.000001008120
202       0.000000334968
203      -0.000000284993
204       0.000002184636
205      -0.000002618876
206      -0.000002857846
207      -0.000001096252
208       0.000001658124
209      -0.000007058182
210      -0.000000714815
211       0.000000881667
212      -0.000000671715
213       0.000001235267
214       0.000000582914
215      -0.000000322466
216      -0.000002640976
 Sym=     1a
 Ene= -2.87546905167475E+02
 Spin= Alpha
 Occup= 1.000000
  1      -0.000000104408
  2      -0.000000132479
  3      -0.000000220441
  4      -0.000000506918
  5      -0.000000563313
  6      -0.000000463485
  7       0.000002117137
  8       0.000001466696
  9       0.000000724327
 10      -0.000002533663
 11       0.000004545758
 12      -0.000007365975
 13       0.000011910334
 14      -0.000016405095
 15       0.000012305513
 16      -0.000000009505
 17      -0.000002026864
 18       0.000000504335
 19       0.344456374308
 20      -0.061125882119
 21       0.065221110306
 22       0.464249340940
 23      -0.082383793175
 24       0.087903181654
 25       0.294109204815
 26      -0.052191469342
 27       0.055688124085
 28       0.014980852461
 29      -0.002658107585
 30       0.002835997151
 31       0.005427116643
 32      -0.000963734415
 33       0.001028687131
 34      -0.003737101413
 35       0.000664382008
 36      -0.000709597861
 37       0.002269640944
 38      -0.000405012885
 39       0.000433424552
 40      -0.001424609752
 41       0.000256818696
 42      -0.000276175875
 43       0.000893568052
 44      -0.000163450575
 45       0.000176883647
 46      -0.000464933861
 47       0.000083936635
 48      -0.000090630706
 49       0.000189778031
 50      -0.000033262710
 51       0.000035381204
 52      -0.000060271098
 53       0.000010564573
 54      -0.000011224283
 55       0.000000225942
 56       0.000000082015
 57      -0.000000138405
 58      -0.000000234466
 59      -0.000000001565
 60      -0.000000487530
 61       0.000000572567
 62      -0.000001044782
 63       0.000002180944
 64      -0.000000162812
 65       0.000002127683
 66      -0.000001496995
 67       0.000003384231
 68      -0.000008181905
 69       0.000000263185
 70      -0.000004967213
 71       0.000003880593
 72      -0.000008385633
 73       0.000019670260
 74      -0.000000774203
 75       0.000010502401
 76      -0.000008295277
 77       0.000017790108
 78      -0.000041681888
 79       0.000001658666
 80      -0.000016070969
 81       0.000012850508
 82      -0.000027356633
 83       0.000063991933
 84      -0.000002563892
 85       0.000003698998
 86      -0.000002673914
 87       0.000007182194
 88      -0.000015693289
 89       0.000000456620
 90       0.000003010904
 91      -0.000002090050
 92       0.000004867300
 93      -0.000011712377
 94       0.000000323993
 95      -0.000000966391
 96       0.000000666510
 97      -0.000001563547
 98       0.000003757151
 99      -0.000000104631
100       0.000001328803
101       0.000002514972
102      -0.000001490168
103      -0.000001771542
104       0.000000696297
105       0.000003392396
106      -0.000001321400
107      -0.000008216402
108      -0.000015634436
109       0.000013583385
110       0.000013337275
111       0.000011462915
112      -0.000007913183
113       0.000004777301
114       0.000004359418
115       0.000007633864
116      -0.000006761532
117      -0.000007236492
118      -0.000006950358
119       0.000002881332
120      -0.000002455857
121       0.000000626239
122      -0.000003229226
123       0.000006497364
124      -0.000018528737
125      -0.000023020909
126      -0.000012807791
127      -0.000001225301
128      -0.000004583997
129      -0.000004104399
130       0.000006477735
131       0.000016700329
132       0.000015604226
133       0.000007488475
134       0.000000250804
135       0.000002374560
136      -0.000000763530
137      -0.000000569339
138      -0.000003679038
139       0.000002406344
140      -0.000000937132
141       0.000003111051
142       0.000004350713
143       0.000015516401
144      -0.000008713484
145       0.000005465395
146      -0.000000356268
147      -0.000000155616
148       0.000001479705
149      -0.000002700563
150       0.000000043505
151       0.000000638733
152       0.000001662166
153       0.000000773256
154      -0.000003990847
155       0.000008043832
156      -0.000023102162
157      -0.000028797839
158      -0.000015510155
159      -0.000001897485
160       0.000007136171
161       0.000002265549
162       0.000009068544
163      -0.000027123925
164      -0.000008150496
165       0.000007455037
166      -0.000003695507
167       0.000000102582
168       0.000001671505
169       0.000000688531
170      -0.000002613094
171       0.000004006322
172       0.000001593380
173      -0.000008159084
174      -0.000003347934
175       0.000010803313
176      -0.000016329808
177      -0.000009387333
178       0.000001137727
179       0.000000304217
180       0.000000475638
181       0.000001828299
182       0.000000552123
183       0.000000500618
184      -0.000002741989
185      -0.000001537845
186       0.000007944326
187      -0.000016040238
188       0.000046352544
189       0.000057546341
190       0.000028297889
191      -0.000015023228
192       0.000001562112
193      -0.000003122147
194       0.000058843660
195      -0.000006232958
196       0.000012150463
197       0.000012666050
198      -0.000001604148
199       0.000002627018
200      -0.000004220652
201       0.000003332580
202      -0.000000466447
203       0.000007999033
204      -0.000001588808
205       0.000019680498
206      -0.000015335837
207       0.000001955676
208      -0.000036926517
209       0.000007573080
210      -0.000001217816
211      -0.000002009853
212       0.000000199080
213       0.000001597778
214      -0.000000239699
215      -0.000003002162
216       0.000000825324
 Sym=     1a
 Ene= -2.87543793136180E+02
 Spin= Alpha
 Occup= 1.000000
  1       0.000000076970
  2       0.000000105643
  3       0.000000139861
  4       0.000000461733
  5       0.000000221928
  6       0.000000833952
  7      -0.000002907574
  8       0.000000244251
  9      -0.000002108696
 10       0.000007414715
 11      -0.000013495912
 12       0.000021618827
 13      -0.000034550611
 14       0.000047730538
 15      -0.000041551272
 16       0.000012231849
 17       0.000005176152
 18      -0.000001497419
 19      -0.087257807156
 20      -0.173586866907
 21       0.298153953102
 22      -0.117604724274
 23      -0.233957387172
 24       0.401846755260
 25      -0.074501496664
 26      -0.148210020660
 27       0.254566512323
 28      -0.003795412610
 29      -0.007549142605
 30       0.012966457560
 31      -0.001369733425
 32      -0.002727416046
 33       0.004684629610
 34       0.000936928486
 35       0.001868517870
 36      -0.003209382487
 37      -0.000556714288
 38      -0.001116065069
 39       0.001916954545
 40       0.000328685558
 41       0.000668930839
 42      -0.001148896209
 43      -0.000187628540
 44      -0.000391431207
 45       0.000672229450
 46       0.000105515035
 47       0.000216350079
 48      -0.000371937059
 49      -0.000050949941
 50      -0.000100124879
 51       0.000172066872
 52       0.000016222472
 53       0.000031846730
 54      -0.000054718349
 55       0.000000024948
 56      -0.000000347783
 57      -0.000000102009
 58       0.000000077306
 59       0.000000204278
 60       0.000000228475
 61      -0.000000247592
 62      -0.000000481932
 63       0.000000136703
 64       0.000000142679
 65      -0.000000239390
 66       0.000000144605
 67       0.000000834531
 68      -0.000000572754
 69      -0.000000072415
 70       0.000000762880
 71      -0.000000621045