[Molden Format]
[Title]
 Molden file created by orca_2mkl for BaseName=/home/nikolayandreadi_2125/_scratch/F1_cc/Pr_F1_cc

[Atoms] AU
Pr   1  59         -0.6045290594        -0.1444242095        -1.5175011081 
F    2   9          3.0851290917        -0.5419791244        -0.6731582434 
[GTO]
  1 0
s   6 1.0 
   961538.7552820001      1791.2119698187
   427350.5579030000      -464.6976799751
   189933.5812900000      1059.7453352467
    84414.9250180000       265.3867821965
    37517.7444520000       670.9029254951
    16674.5530900000       532.5812088880
s   1 1.0 
     7410.9124840000       569.2641778037
s   1 1.0 
     3293.7388820000       309.8681698966
s   1 1.0 
     1463.8839480000       168.6708675443
s   1 1.0 
      650.6150880000        91.8127911014
s   1 1.0 
      289.1622610000        49.9765533033
s   1 1.0 
      128.5165610000        27.2037900206
s   1 1.0 
       57.1184710000        14.8078675854
s   1 1.0 
       25.3859870000         8.0603821431
s   1 1.0 
       11.2826610000         4.3875163396
s   1 1.0 
        5.0145160000         2.3882613934
s   1 1.0 
        2.2286740000         1.3000049386
s   1 1.0 
        0.9905220000         0.7076331774
s   1 1.0 
        0.4402320000         0.3851867133
s   1 1.0 
        0.1956590000         0.2096693575
s   1 1.0 
        0.0869590000         0.1141289955
s   1 1.0 
        0.0386490000         0.0621246262
s   1 1.0 
        0.0171770000         0.0338158711
p   5 1.0 
    12926.8771060000      2243.4411625356
     5170.7508420000       970.3267113047
     2068.3003370000      1541.0095733413
      827.3201350000      1562.6929899323
      330.9280540000      1504.3140347474
p   1 1.0 
      132.3712220000       640.0030748661
p   1 1.0 
       52.9484890000       203.5902856660
p   1 1.0 
       21.1793950000        64.7637556472
p   1 1.0 
        8.4717580000        20.6018876605
p   1 1.0 
        3.3887030000         6.5536308020
p   1 1.0 
        1.3554810000         2.0847639131
p   1 1.0 
        0.5421930000         0.6631816039
p   1 1.0 
        0.2168770000         0.2109633238
p   1 1.0 
        0.0867510000         0.0671093759
p   1 1.0 
        0.0347000000         0.0213477413
p   1 1.0 
        0.0138800000         0.0067908935
d   4 1.0 
      877.6091640000      3337.5212855414
      319.1306050000      3244.8563107122
      116.0474930000      3005.5140400133
       42.1990880000      1583.5704970499
d   1 1.0 
       15.3451230000       339.1706298333
d   1 1.0 
        5.5800450000        57.7545309127
d   1 1.0 
        2.0291070000         9.8345330570
d   1 1.0 
        0.7378570000         1.6746399082
d   1 1.0 
        0.2683120000         0.2851610810
d   1 1.0 
        0.0975680000         0.0485576922
d   1 1.0 
        0.0354790000         0.0082683715
d   1 1.0 
        0.0129020000         0.0014080559
f   4 1.0 
       20.9298010000       586.8186602000
        6.9766000000       151.0188164213
        2.3255330000        19.5194371871
        0.7751780000         1.2419682566
f   1 1.0 
        0.2583930000         0.2714136926
f   1 1.0 
        0.0861310000         0.0229144232

  2 0
s   6 1.0 
    35479.1004410000         1.9229128581
     5318.4728983000         2.2734773358
     1210.4810975000         3.4747482552
      342.8551814000         5.2879612972
      112.0194318100         7.1666332516
       40.7147402500         7.7556346254
s   1 1.0 
       16.0396781100         5.7122450312
s   1 1.0 
        6.5038186700         2.9025947842
s   1 1.0 
        1.5440477500         0.9872011154
s   1 1.0 
        0.6122345300        -0.4932856223
s   1 1.0 
        0.2402798000         0.2445952611
p   4 1.0 
       80.2339004800         4.2755032106
       18.5940107400         4.7314752302
        5.6867902700         4.0864798013
        1.9511006300         2.2989954518
p   1 1.0 
        0.6697021100         0.8635593126
p   1 1.0 
        0.2165130000         0.2105208234
d   1 1.0 
        3.1070000000        20.7284714039
d   1 1.0 
        0.8550000000         2.1672588463
f   1 1.0 
        1.9170000000        24.6547062912

[5D]
[7F]
[9G]
[MO]
 Sym=     1a
 Ene= -1.54905260035333E+03
 Spin= Alpha
 Occup= 1.000000
  1       0.079152522460
  2       0.092431882241
  3       0.170065540089
  4       0.298778909139
  5       0.347532329115
  6       0.177931158080
  7       0.011289342410
  8       0.003100198944
  9      -0.002250952279
 10       0.001477719762
 11      -0.000996352507
 12       0.000665891359
 13      -0.000435489065
 14       0.000281266318
 15      -0.000174573117
 16       0.000096309973
 17      -0.000043172085
 18       0.000011797219
 19      -0.000000173609
 20       0.000000009977
 21      -0.000000047560
 22       0.000000422218
 23      -0.000000039155
 24       0.000000098714
 25      -0.000000246104
 26       0.000000025240
 27      -0.000000059045
 28       0.000000383751
 29      -0.000000038068
 30       0.000000088988
 31      -0.000000583037
 32       0.000000060248
 33      -0.000000134371
 34       0.000000932636
 35      -0.000000099926
 36       0.000000213903
 37      -0.000001667885
 38       0.000000179357
 39      -0.000000382059
 40       0.000002978835
 41      -0.000000320631
 42       0.000000681870
 43      -0.000003918699
 44       0.000000422179
 45      -0.000000896840
 46       0.000001289926
 47      -0.000000138887
 48       0.000000295232
 49       0.000000345864
 50      -0.000000037285
 51       0.000000079119
 52      -0.000000127759
 53       0.000000013772
 54      -0.000000029227
 55      -0.000000045827
 56       0.000000014519
 57       0.000000020167
 58       0.000000069332
 59       0.000000018715
 60       0.000000086995
 61      -0.000000063612
 62       0.000000005218
 63      -0.000000152874
 64       0.000000006519
 65      -0.000000172022
 66       0.000000138236
 67      -0.000000002126
 68       0.000000317482
 69      -0.000000054799
 70       0.000000309840
 71      -0.000000266910
 72       0.000000027869
 73      -0.000000581354
 74       0.000000118687
 75      -0.000000628376
 76       0.000000546247
 77      -0.000000056603
 78       0.000001184187
 79      -0.000000253349
 80       0.000001093047
 81      -0.000000954098
 82       0.000000101948
 83      -0.000002062414
 84       0.000000447345
 85      -0.000000416824
 86       0.000000363647
 87      -0.000000038732
 88       0.000000786353
 89      -0.000000170312
 90      -0.000000124919
 91       0.000000109510
 92      -0.000000011999
 93       0.000000236046
 94      -0.000000051983
 95       0.000000046030
 96      -0.000000040343
 97       0.000000004415
 98      -0.000000086971
 99       0.000000019138
100      -0.000000055485
101      -0.000000081498
102       0.000000008472
103       0.000000072864
104      -0.000000015688
105      -0.000000126851
106       0.000000042094
107       0.000000448946
108       0.000000658196
109      -0.000000070405
110      -0.000000587035
111       0.000000127806
112       0.000001022482
113      -0.000000340836
114      -0.000000322122
115      -0.000000472088
116       0.000000050731
117       0.000000420972
118      -0.000000091725
119      -0.000000733345
120       0.000000244565
121       0.000000012751
122      -0.000000071344
123       0.000000177586
124      -0.000001121914
125      -0.000002696129
126      -0.000001318708
127       0.000000141691
128      -0.000000015306
129       0.000000032440
130      -0.000001951541
131       0.000000210440
132      -0.000000446652
133      -0.000001216674
134       0.000000131047
135      -0.000000278370
136      -0.000000055794
137       0.000000048752
138      -0.000000005236
139       0.000000105327
140      -0.000000022897
141      -0.000000190440
142       0.000000166536
143      -0.000000017997
144       0.000000359489
145      -0.000000078601
146      -0.000000146578
147      -0.000000214776
148       0.000000023133
149       0.000000191500
150      -0.000000041737
151      -0.000000333632
152       0.000000111262
 Sym=     1a
 Ene= -2.53665002661449E+02
 Spin= Alpha
 Occup= 1.000000
  1       0.028911574309
  2       0.037022646992
  3       0.069306121683
  4       0.143604010327
  5       0.207159695965
  6       0.099437298934
  7      -0.447222616396
  8      -0.618120500286
  9      -0.112983627073
 10      -0.003560825831
 11       0.002954545720
 12      -0.002104710846
 13       0.001543576353
 14      -0.001044036422
 15       0.000654061360
 16      -0.000363222212
 17       0.000163370310
 18      -0.000044726871
 19      -0.000019198263
 20       0.000002431319
 21      -0.000003771130
 22      -0.000027701316
 23       0.000003418106
 24      -0.000005480150
 25      -0.000022888578
 26       0.000002785551
 27      -0.000004446280
 28      -0.000000876036
 29       0.000000510883
 30      -0.000000009091
 31      -0.000000289397
 32      -0.000000107690
 33      -0.000000055222
 34      -0.000002954791
 35       0.000000344586
 36      -0.000000663690
 37       0.000005930600
 38      -0.000000657223
 39       0.000001356473
 40      -0.000011167758
 41       0.000001216289
 42      -0.000002553183
 43       0.000015454299
 44      -0.000001668102
 45       0.000003535778
 46      -0.000004696271
 47       0.000000509881
 48      -0.000001073914
 49      -0.000001438918
 50       0.000000153129
 51      -0.000000329446
 52       0.000000518317
 53      -0.000000055201
 54       0.000000118667
 55       0.000004583610
 56      -0.000000944013
 57      -0.000002248397
 58      -0.000006292863
 59      -0.000002500280
 60      -0.000001846420
 61       0.000000588791
 62       0.000000283653
 63       0.000002843168
 64       0.000002163972
 65       0.000000350054
 66      -0.000000331606
 67       0.000000102457
 68      -0.000000718130
 69      -0.000000028986
 70      -0.000001302826
 71       0.000000967917
 72       0.000000051214
 73       0.000002391053
 74      -0.000000155877
 75       0.000002518894
 76      -0.000002153713
 77       0.000000206744
 78      -0.000004730509
 79       0.000000897892
 80      -0.000004424393
 81       0.000003835545
 82      -0.000000391168
 83       0.000008338417
 84      -0.000001735968
 85       0.000001565672
 86      -0.000001352919
 87       0.000000135465
 88      -0.000002948692
 89       0.000000602277
 90       0.000000489377
 91      -0.000000434918
 92       0.000000051677
 93      -0.000000927049
 94       0.000000220160
 95      -0.000000178548
 96       0.000000158499
 97      -0.000000018714
 98       0.000000338156
 99      -0.000000079856
100       0.000000336530
101       0.000000444560
102      -0.000000081652
103      -0.000000411318
104       0.000000081260
105       0.000000745633
106      -0.000000240860
107      -0.000001880147
108      -0.000002730118
109       0.000000316702
110       0.000002435797
111      -0.000000531170
112      -0.000004258488
113       0.000001421559
114       0.000001267465
115       0.000001849186
116      -0.000000206105
117      -0.000001649608
118       0.000000359203
119       0.000002879141
120      -0.000000959810
121      -0.000000058630
122       0.000000299359
123      -0.000000779405
124       0.000004501234
125       0.000010203095
126       0.000004368282
127      -0.000000681292
128       0.000000074726
129      -0.000000156215
130       0.000007611407
131      -0.000000822850
132       0.000001742398
133       0.000005003364
134      -0.000000536503
135       0.000001144314
136       0.000000162602
137      -0.000000141667
138       0.000000015117
139      -0.000000306961
140       0.000000065537
141       0.000000860268
142      -0.000000753382
143       0.000000081745
144      -0.000001623943
145       0.000000358516
146       0.000000514596
147       0.000000754314
148      -0.000000081051
149      -0.000000672249
150       0.000000146366
151       0.000001171767
152      -0.000000389818
 Sym=     1a
 Ene= -2.27146411493473E+02
 Spin= Alpha
 Occup= 1.000000
  1      -0.000001700657
  2      -0.000002149427
  3      -0.000004196123
  4      -0.000008136034
  5      -0.000013295322
  6      -0.000003077177
  7       0.000024225632
  8       0.000037685550
  9      -0.000000936729
 10       0.000021643538
 11      -0.000039900676
 12       0.000062527268
 13      -0.000102833902
 14       0.000151093900
 15      -0.000084971651
 16      -0.000123873127
 17       0.000069292270
 18      -0.000016035707
 19      -0.336780836710
 20      -0.085078208658
 21      -0.027109360795
 22      -0.463267875535
 23      -0.117032521185
 24      -0.037290654239
 25      -0.298981761741
 26      -0.075530587926
 27      -0.024066232959
 28      -0.017520631623
 29      -0.004428379300
 30      -0.001409054189
 31      -0.005220577104
 32      -0.001312874944
 33      -0.000422461463
 34       0.003627007314
 35       0.000907561450
 36       0.000295554615
 37      -0.002181160618
 38      -0.000533831597
 39      -0.000182610433
 40       0.001369120315
 41       0.000312710024
 42       0.000123872496
 43      -0.000869897640
 44      -0.000174103430
 45      -0.000088810790
 46       0.000358052715
 47       0.000109384500
 48       0.000021027810
 49      -0.000156671873
 50      -0.000054001401
 51      -0.000006673621
 52       0.000051023588
 53       0.000017035437
 54       0.000002400399
 55       0.000004425687
 56      -0.000002512034
 57      -0.000000257419
 58      -0.000008383427
 59      -0.000000606737
 60       0.000000134043
 61      -0.000000377257
 62       0.000000062008
 63      -0.000000641206
 64       0.000000545716
 65      -0.000002812978
 66       0.000002406466
 67      -0.000000279124
 68       0.000005197571
 69      -0.000001083874
 70       0.000008315133
 71      -0.000007079865
 72       0.000000644362
 73      -0.000015778060
 74       0.000002959427
 75      -0.000019559654
 76       0.000016664247
 77      -0.000001573793
 78       0.000036956726
 79      -0.000007065478
 80       0.000039391381
 81      -0.000033764870
 82       0.000003296372
 83      -0.000074403765
 84       0.000014697270
 85       0.000011481011
 86      -0.000010574329
 87       0.000001411544
 88      -0.000021647891
 89       0.000005935763
 90      -0.000011427904
 91       0.000009950930
 92      -0.000001053085
 93       0.000021572210
 94      -0.000004616733
 95       0.000003578402
 96      -0.000003107423
 97       0.000000324532
 98      -0.000006755261
 99       0.000001426466
100      -0.000001951998
101      -0.000003220777
102       0.000000285442
103       0.000002554475
104      -0.000000499168
105      -0.000004729173
106       0.000000783538
107       0.000018130658
108       0.000027143584
109      -0.000002887566
110      -0.000023629730
111       0.000004791364
112       0.000042152662
113      -0.000012581503
114      -0.000004634471
115      -0.000007402659
116       0.000000600499
117       0.000006095205
118      -0.000000911090
119      -0.000011480293
120       0.000002538505
121      -0.000000362104
122       0.000001661051
123      -0.000002233313
124      -0.000006159879
125       0.000000783570
126       0.000122920678
127       0.000003179497
128      -0.000001327240
129       0.000001131848
130      -0.000038639503
131       0.000007488082
132      -0.000010207536
133      -0.000101376250
134       0.000008102039
135      -0.000022036000
136      -0.000000290594
137      -0.000000225606
138       0.000000269624
139       0.000000573380
140       0.000000966159
141      -0.000007413897
142       0.000008200160
143      -0.000001761379
144       0.000013908375
145      -0.000006941387
146      -0.000002225164
147      -0.000003603835
148       0.000000254737
149       0.000002945184
150      -0.000000392425
151      -0.000005601195
152       0.000001179956
 Sym=     1a
 Ene= -2.27145240232066E+02
 Spin= Alpha
 Occup= 1.000000
  1      -0.000000407231
  2      -0.000000516160
  3      -0.000000999729
  4      -0.000001964404
  5      -0.000003138164
  6      -0.000000870827
  7       0.000005958372
  8       0.000009380627
  9      -0.000000673908
 10       0.000004243990
 11      -0.000007858611
 12       0.000012466684
 13      -0.000020522552
 14       0.000030114865
 15      -0.000016905443
 16      -0.000024751308
 17       0.000013828750
 18      -0.000003199533
 19      -0.084369969924
 20       0.268551867923
 21       0.205317548795
 22      -0.116057503766
 23       0.369415729892
 24       0.282431822012
 25      -0.074899166229
 26       0.238408273227
 27       0.182271816824
 28      -0.004390618881
 29       0.013978715018
 30       0.010687535123
 31      -0.001308712175
 32       0.004155027545
 33       0.003175900146
 34       0.000907297703
 35      -0.002873168076
 36      -0.002195128473
 37      -0.000544231462
 38       0.001702978482
 39       0.001299042632
 40       0.000338268495
 41      -0.001020272522
 42      -0.000774347663
 43      -0.000211493707
 44       0.000595495770
 45       0.000447421494
 46       0.000092355296
 47      -0.000326324317
 48      -0.000252761653
 49      -0.000041291929
 50       0.000156010184
 51       0.000121763512
 52       0.000013370036
 53      -0.000049621023
 54      -0.000038652177
 55       0.000002343125
 56       0.000003736445
 57       0.000000626228
 58      -0.000001234286
 59       0.000005642069
 60      -0.000000270930
 61      -0.000000634248
 62      -0.000000322835
 63      -0.000000101268
 64      -0.000000799511
 65      -0.000000643001
 66       0.000000330175
 67       0.000000076123
 68       0.000000939382
 69      -0.000000398010
 70       0.000001913546
 71      -0.000000642435
 72       0.000000175703
 73      -0.000003067555
 74       0.000001608384
 75      -0.000004587938
 76       0.000001661665
 77      -0.000000640569
 78       0.000007254115
 79      -0.000003716979
 80       0.000008877690
 81      -0.000004203310
 82       0.000001165033
 83      -0.000014669382
 84       0.000006439800
 85       0.000001482823
 86      -0.000004156740
 87      -0.000000124083
 88      -0.000004480234
 89      -0.000001641961
 90      -0.000002338341
 91       0.000001846578
 92      -0.000000242978
 93       0.000004300156
 94      -0.000001117222
 95       0.000000745127
 96      -0.000000544483
 97       0.000000081867
 98      -0.000001344474
 99       0.000000390505
100       0.000000344821
101      -0.000001015630
102       0.000000357302
103       0.000000281575
104      -0.000000681581
105      -0.000001521667
106       0.000000920644
107       0.000001858121
108       0.000006828934
109      -0.000001184666
110      -0.000003605682
111       0.000001727573
112       0.000008005056
113      -0.000005289050
114       0.000000263481
115      -0.000002722099
116       0.000000796088
117      -0.000000323162
118      -0.000000886449
119      -0.000001895124
120       0.000003224457
121      -0.000000071967
122       0.000000330147
123      -0.000000443282
124      -0.000001231838
125       0.000000155756
126       0.000024569699
127       0.000000493837
128       0.000002038207
129       0.000001927433
130      -0.000007229372
131      -0.000006284624
132      -0.000007781810
133      -0.000020630325
134       0.000008276653
135       0.000000514707
136      -0.000000789797
137      -0.000001849407
138      -0.000000317585
139      -0.000000002472
140      -0.000002313822
141       0.000001143727
142       0.000008102200
143       0.000000981163
144       0.000003189719
145       0.000007599823
146       0.000000127307
147      -0.000001402573
148       0.000000437398
149      -0.000000345739
150      -0.000000452473
151      -0.000000876407
152       0.000001757197
 Sym=     1a
 Ene= -2.27144714880268E+02
 Spin= Alpha
 Occup= 1.000000
  1       0.000000563562
  2       0.000000711853
  3       0.000001391512
  4       0.000002691254
  5       0.000004412191
  6       0.000001003786
  7      -0.000007880555
  8      -0.000012829133
  9       0.000000603147
 10      -0.000007406838
 11       0.000013755469
 12      -0.000021640792
 13       0.000035619093
 14      -0.000052319418
 15       0.000029396893
 16       0.000042942003
 17      -0.000024010941
 18       0.000005556102
 19       0.029241723120
 20      -0.205025408855
 21       0.280185424944
 22       0.040223592589
 23      -0.282029677577
 24       0.385418626120
 25       0.025958190124
 26      -0.182011216177
 27       0.248734296412
 28       0.001519536726
 29      -0.010671078567
 30       0.014582540788
 31       0.000457868395
 32      -0.003172207351
 33       0.004335815508
 34      -0.000321170903
 35       0.002194005007
 36      -0.002998975920
 37       0.000201809052
 38      -0.001301131124
 39       0.001779464617
 40      -0.000142773258
 41       0.000780861891
 42      -0.001069759688
 43       0.000108419525
 44      -0.000457276759
 45       0.000628495222
 46      -0.000017425767
 47       0.000248039601
 48      -0.000337481181
 49       0.000003209331
 50      -0.000118271122
 51       0.000160496862
 52      -0.000001442762
 53       0.000037643193
 54      -0.000051117636
 55       0.000000398964
 56       0.000005990826
 57      -0.000001404795
 58       0.000000398819
 59      -0.000004337109
 60      -0.000000458380
 61      -0.000000613285
 62       0.000000162851
 63       0.000000427565
 64       0.000000522192
 65       0.000000720509
 66      -0.000000976593
 67       0.000000319092
 68      -0.000001755622
 69       0.000000435796
 70      -0.000002445736
 71       0.000003347489
 72      -0.000000557223
 73       0.000005023384
 74      -0.000001825262
 75       0.000005910945
 76      -0.000007786315
 77       0.000001236400
 78      -0.000011899252
 79       0.000004239427
 80      -0.000012330520
 81       0.000014759072
 82      -0.000002163496
 83       0.000024393329
 84      -0.000007831282
 85      -0.000005053023
 86       0.000001200772
 87       0.000000335958
 88       0.000008627604
 89       0.000000157526
 90       0.000003888929
 91      -0.000003619009
 92       0.000000417801
 93      -0.000007400751
 94       0.000001753423
 95      -0.000001201271
 96       0.000001169102
 97      -0.000000141716
 98       0.000002300055
 99      -0.000000577259
100       0.000001224447
101       0.000000550541
102       0.000000492355
103      -0.000001300499
104      -0.000000223569
105       0.000001883520
106      -0.000001120554
107      -0.000007729261
108      -0.000007654119
109       0.000000308909
110       0.000009818203
111      -0.000002520664
112      -0.000013415940
113       0.000006732459
114       0.000002940414
115       0.000000854609
116      -0.000000269111
117      -0.000003764727
118       0.000001448121
119       0.000002725306
120      -0.000002981528
121       0.000000125322
122      -0.000000575043
123       0.000000772904
124       0.000002134699
125      -0.000000272119
126      -0.000042616125
127      -0.000001805075
128      -0.000001429011
129       0.000001792137
130       0.000015759044
131       0.000003786491
132      -0.000003842637
133       0.000033085039
134      -0.000008279229
135       0.000013950726
136      -0.000000832254
137      -0.000002110650
138       0.000000630211
139       0.000000783247
140       0.000001624903
141       0.000005913155
142       0.000005005821
143      -0.000001982076
144      -0.000008335437
145      -0.000004620830
146       0.000001504257
147       0.000000301474
148      -0.000000252406
149      -0.000001959654
150       0.000000838374
151       0.000001207941
152      -0.000001541004
 Sym=     1a
 Ene= -5.67413907664766E+01
 Spin= Alpha
 Occup= 1.000000
  1      -0.013283576832
  2      -0.017206428977
  3      -0.032552662733
  4      -0.068449398077
  5      -0.104546948908
  6      -0.048129462638
  7       0.326481518088
  8       0.693682975194
  9      -0.315833137270
 10      -0.950758152114
 11      -0.089793223155
 12      -0.027475565725
 13       0.018779396445
 14      -0.012809805100
 15       0.008265392222
 16      -0.004617232174
 17       0.002086626097
 18      -0.000572704124
 19       0.000065006021
 20      -0.000017346689
 21       0.000012750469
 22       0.000100537837
 23      -0.000026567780
 24       0.000019783510
 25       0.000024663832
 26      -0.000005363002
 27       0.000004609012
 28      -0.000275078806
 29       0.000064951534
 30      -0.000053419589
 31      -0.000136028612
 32       0.000048867562
 33      -0.000027073114
 34      -0.000011843208
 35      -0.000000351178
 36      -0.000004983013
 37       0.000059354832
 38      -0.000005030264
 39       0.000014349793
 40      -0.000139628757
 41       0.000014203358
 42      -0.000032389413
 43       0.000192447416
 44      -0.000020353179
 45       0.000044289083
 46      -0.000060012656
 47       0.000006225306
 48      -0.000013864436
 49      -0.000018031873
 50       0.000002075302
 51      -0.000004062689
 52       0.000006546173
 53      -0.000000748609
 54       0.000001477591
 55       0.000007099570
 56       0.000001676513
 57      -0.000029643847
 58      -0.000006665598
 59       0.000048781561
 60       0.000009251416
 61       0.000007297571
 62      -0.000051729600
 63      -0.000004547059
 64       0.000074463844
 65      -0.000056811114
 66       0.000023356035
 67      -0.000027617725
 68       0.000085054387
 69       0.000108255064
 70      -0.000020806134
 71       0.000013345072
 72       0.000001246814
 73       0.000035077578
 74      -0.000000584144
 75       0.000028529703
 76      -0.000025321406
 77       0.000000920420
 78      -0.000054349687
 79       0.000016467049
 80      -0.000054010294
 81       0.000047391554
 82      -0.000004335009
 83       0.000102068308
 84      -0.000024597003
 85       0.000020060603
 86      -0.000017608259
 87       0.000001497308
 88      -0.000037930125
 89       0.000009432747
 90       0.000006297460
 91      -0.000005465312
 92       0.000000777225
 93      -0.000011852854
 94       0.000002071570
 95      -0.000002297318
 96       0.000001994580
 97      -0.000000279360
 98       0.000004324575
 99      -0.000000768437
100       0.000003997563
101       0.000004336618
102      -0.000001588672
103      -0.000004275686
104       0.000001360129
105       0.000007928782
106      -0.000004843150
107      -0.000022737311
108      -0.000033008508
109       0.000003698805
110       0.000029619538
111      -0.000006557225
112      -0.000051627394
113       0.000017889281
114       0.000016027451
115       0.000023362089
116      -0.000002596189
117      -0.000020886011
118       0.000004600895
119       0.000036414880
120      -0.000012425148
121      -0.000000435551
122       0.000003962516
123      -0.000010071173
124       0.000057740516
125       0.000129971443
126       0.000054746041
127      -0.000008964887
128       0.000000901817
129      -0.000002045792
130       0.000098888699
131      -0.000010458327
132       0.000022617797
133       0.000064357267
134      -0.000007052053
135       0.000014711468
136       0.000001285210
137      -0.000001128833
138       0.000000137095
139      -0.000002412240
140       0.000000579967
141       0.000012685742
142      -0.000011073669
143       0.000001137378
144      -0.000023998422
145       0.000005033567
146       0.000005537214
147       0.000008108893
148      -0.000000878598
149      -0.000007226304
150       0.000001596364
151       0.000012579629
152      -0.000004231484
 Sym=     1a
 Ene= -4.80999305237209E+01
 Spin= Alpha
 Occup= 1.000000
  1      -0.000002808838
  2      -0.000003665734
  3      -0.000006796825
  4      -0.000014786832
  5      -0.000021518227
  6      -0.000011775047
  7       0.000075141003
  8       0.000138090894
  9      -0.000058054042
 10      -0.000238319857
 11       0.000089344984
 12      -0.000219927470
 13       0.000368048326
 14      -0.000538446314
 15       0.000302013782
 16       0.000463315085
 17      -0.000256977758
 18       0.000059431008
 19      -0.081213742634
 20       0.138939669908
 21       0.083128147684
 22      -0.126892877640
 23       0.217083912604
 24       0.129881620608
 25      -0.010783692897
 26       0.018457738511
 27       0.011045705710
 28       0.311304831797
 29      -0.532560760521
 30      -0.318633997819
 31       0.180081129614
 32      -0.308063435694
 33      -0.184312458858
 34      -0.007143067783
 35       0.011992691172
 36       0.007148094251
 37       0.008220358965
 38      -0.013804993649
 39      -0.008209186793
 40      -0.005066510062
 41       0.008139965207
 42       0.004774584158
 43       0.003215937716
 44      -0.004756273997
 45      -0.002710052994
 46      -0.001327844653
 47       0.002592190937
 48       0.001609186145
 49       0.000584919671
 50      -0.001239211377
 51      -0.000784982930
 52      -0.000190746019
 53       0.000394986688
 54       0.000248858684
 55      -0.000031882377
 56      -0.000036608887
 57       0.000001096427
 58       0.000009770265
 59      -0.000067530837
 60      -0.000054527782
 61      -0.000031426067
 62      -0.000003784932
 63       0.000038592404
 64      -0.000089568564
 65       0.000004004934
 66      -0.000013229998
 67       0.000002452678
 68      -0.000022267640
 69      -0.000007685589
 70      -0.000033119526
 71       0.000020609955
 72      -0.000005507221
 73       0.000057987078
 74      -0.000020311177
 75       0.000074260502
 76      -0.000046706736
 77       0.000008940806
 78      -0.000130474479
 79       0.000046348648
 80      -0.000150686626
 81       0.000106133781
 82      -0.000017030508
 83       0.000269495771
 84      -0.000083627042
 85      -0.000038668913
 86       0.000053093110
 87      -0.000001136836
 88       0.000084723135
 89       0.000001689564
 90       0.000042899409
 91      -0.000035939701
 92       0.000004177015
 93      -0.000080015568
 94       0.000018823349
 95      -0.000013510444
 96       0.000011016609
 97      -0.000001347905
 98       0.000025015863
 99      -0.000006190040
100       0.000013035594
101       0.000032014314