[Molden Format]
[Title]
 Molden file created by orca_2mkl for BaseName=/home/nikolayandreadi_2125/_scratch/F_cc/Er_F_cc

[Atoms] AU
Er   1  68          0.3768170603         0.4035661337        -0.7840379243 
F    2   9         -1.5791874383        -1.9376212428        -2.9740245334 
F    3   9         -1.4365603584         3.5075754792         0.2374384195 
F    4   9          3.9623626398        -0.1018770256         0.2788744445 
[GTO]
  1 0
s   6 1.0 
  1280982.1879360001      2520.6148364459
   569325.4168600000      -681.3957563930
   253033.5186050000      1460.6740705580
   112459.3416020000       312.1436294738
    49981.9296010000       863.9077130156
    22214.1909340000       629.2071075609
s   1 1.0 
     9872.9737480000       705.9047087998
s   1 1.0 
     4387.9883330000       384.2458541670
s   1 1.0 
     1950.2170370000       209.1569507843
s   1 1.0 
      866.7631270000       113.8506234070
s   1 1.0 
      385.2280570000        61.9724298993
s   1 1.0 
      171.2124700000        33.7335181159
s   1 1.0 
       76.0944310000        18.3622014494
s   1 1.0 
       33.8197470000         9.9951164432
s   1 1.0 
       15.0309990000         5.4406523584
s   1 1.0 
        6.6804440000         2.9615160324
s   1 1.0 
        2.9690860000         1.6120450527
s   1 1.0 
        1.3195940000         0.8774862934
s   1 1.0 
        0.5864860000         0.4776429032
s   1 1.0 
        0.2606610000         0.2599962805
s   1 1.0 
        0.1158490000         0.1415237440
s   1 1.0 
        0.0514880000         0.0770352700
s   1 1.0 
        0.0228840000         0.0419333005
p   5 1.0 
    17602.8164910000      4022.4508342837
     7041.1265960000      1545.5382950479
     2816.4506390000      2442.5227289582
     1126.5802550000      2329.4326719729
      450.6321020000      2190.8967379529
p   1 1.0 
      180.2528410000       941.4401934414
p   1 1.0 
       72.1011360000       299.4799294147
p   1 1.0 
       28.8404550000        95.2670511641
p   1 1.0 
       11.5361820000        30.3052388827
p   1 1.0 
        4.6144730000         9.6403482870
p   1 1.0 
        1.8457890000         3.0666743077
p   1 1.0 
        0.7383160000         0.9755351853
p   1 1.0 
        0.2953260000         0.3103253057
p   1 1.0 
        0.1181310000         0.0987176796
p   1 1.0 
        0.0472520000         0.0314025801
p   1 1.0 
        0.0189010000         0.0099895532
d   4 1.0 
     1280.6903600000      6403.7653961462
      465.7055860000      6055.6208623721
      169.3474860000      5668.4317575873
       61.5809040000      3092.7344183634
d   1 1.0 
       22.3930560000       657.1559952900
d   1 1.0 
        8.1429290000       111.9015797720
d   1 1.0 
        2.9610650000        19.0547818108
d   1 1.0 
        1.0767510000         3.2446796886
d   1 1.0 
        0.3915460000         0.5525097787
d   1 1.0 
        0.1423800000         0.0940818424
d   1 1.0 
        0.0517750000         0.0160206551
d   1 1.0 
        0.0188270000         0.0027279540
f   4 1.0 
       37.3757410000      2115.7106758334
       12.4585800000       583.6684471563
        4.1528600000        72.9133455825
        1.3842870000         4.2858523755
f   1 1.0 
        0.4614290000         1.0005437237
f   1 1.0 
        0.1538100000         0.0844725037

  2 0
s   6 1.0 
    35479.1004410000         1.9229128581
     5318.4728983000         2.2734773358
     1210.4810975000         3.4747482552
      342.8551814000         5.2879612972
      112.0194318100         7.1666332516
       40.7147402500         7.7556346254
s   1 1.0 
       16.0396781100         5.7122450312
s   1 1.0 
        6.5038186700         2.9025947842
s   1 1.0 
        1.5440477500         0.9872011154
s   1 1.0 
        0.6122345300        -0.4932856223
s   1 1.0 
        0.2402798000         0.2445952611
p   4 1.0 
       80.2339004800         4.2755032106
       18.5940107400         4.7314752302
        5.6867902700         4.0864798013
        1.9511006300         2.2989954518
p   1 1.0 
        0.6697021100         0.8635593126
p   1 1.0 
        0.2165130000         0.2105208234
d   1 1.0 
        3.1070000000        20.7284714039
d   1 1.0 
        0.8550000000         2.1672588463
f   1 1.0 
        1.9170000000        24.6547062912

  3 0
s   6 1.0 
    35479.1004410000         1.9229128581
     5318.4728983000         2.2734773358
     1210.4810975000         3.4747482552
      342.8551814000         5.2879612972
      112.0194318100         7.1666332516
       40.7147402500         7.7556346254
s   1 1.0 
       16.0396781100         5.7122450312
s   1 1.0 
        6.5038186700         2.9025947842
s   1 1.0 
        1.5440477500         0.9872011154
s   1 1.0 
        0.6122345300        -0.4932856223
s   1 1.0 
        0.2402798000         0.2445952611
p   4 1.0 
       80.2339004800         4.2755032106
       18.5940107400         4.7314752302
        5.6867902700         4.0864798013
        1.9511006300         2.2989954518
p   1 1.0 
        0.6697021100         0.8635593126
p   1 1.0 
        0.2165130000         0.2105208234
d   1 1.0 
        3.1070000000        20.7284714039
d   1 1.0 
        0.8550000000         2.1672588463
f   1 1.0 
        1.9170000000        24.6547062912

  4 0
s   6 1.0 
    35479.1004410000         1.9229128581
     5318.4728983000         2.2734773358
     1210.4810975000         3.4747482552
      342.8551814000         5.2879612972
      112.0194318100         7.1666332516
       40.7147402500         7.7556346254
s   1 1.0 
       16.0396781100         5.7122450312
s   1 1.0 
        6.5038186700         2.9025947842
s   1 1.0 
        1.5440477500         0.9872011154
s   1 1.0 
        0.6122345300        -0.4932856223
s   1 1.0 
        0.2402798000         0.2445952611
p   4 1.0 
       80.2339004800         4.2755032106
       18.5940107400         4.7314752302
        5.6867902700         4.0864798013
        1.9511006300         2.2989954518
p   1 1.0 
        0.6697021100         0.8635593126
p   1 1.0 
        0.2165130000         0.2105208234
d   1 1.0 
        3.1070000000        20.7284714039
d   1 1.0 
        0.8550000000         2.1672588463
f   1 1.0 
        1.9170000000        24.6547062912

[5D]
[7F]
[9G]
[MO]
 Sym=     1a
 Ene= -2.11988689816383E+03
 Spin= Alpha
 Occup= 1.000000
  1       0.093919135362
  2       0.102779603986
  3       0.177281402640
  4       0.300655116159
  5       0.335098364471
  6       0.167596140477
  7       0.009242204808
  8       0.003356728115
  9      -0.002443885764
 10       0.001618618465
 11      -0.001089139494
 12       0.000732558167
 13      -0.000489950405
 14       0.000332007689
 15      -0.000233104688
 16       0.000155506506
 17      -0.000050192334
 18       0.000012376325
 19       0.000000053930
 20      -0.000000050601
 21       0.000000022376
 22      -0.000000033243
 23       0.000000041422
 24      -0.000000013546
 25       0.000000028506
 26      -0.000000034999
 27       0.000000013419
 28      -0.000000026996
 29       0.000000037559
 30      -0.000000015786
 31       0.000000033603
 32      -0.000000051562
 33       0.000000022465
 34      -0.000000051713
 35       0.000000081750
 36      -0.000000035957
 37       0.000000095021
 38      -0.000000145764
 39       0.000000061978
 40      -0.000000171327
 41       0.000000255763
 42      -0.000000105191
 43       0.000000176540
 44      -0.000000350073
 45       0.000000174000
 46      -0.000000496809
 47       0.000000821916
 48      -0.000000395769
 49       0.000000174696
 50      -0.000000199997
 51       0.000000070803
 52      -0.000000041843
 53       0.000000041919
 54      -0.000000012251
 55      -0.000000017359
 56       0.000000017223
 57       0.000000023804
 58       0.000000005111
 59      -0.000000007436
 60       0.000000140513
 61      -0.000000139020
 62      -0.000000179583
 63      -0.000000047135
 64       0.000000066457
 65      -0.000000335682
 66       0.000000330871
 67       0.000000427417
 68       0.000000111887
 69      -0.000000160540
 70       0.000000698279
 71      -0.000000686480
 72      -0.000000888730
 73      -0.000000230739
 74       0.000000335764
 75      -0.000001368186
 76       0.000001339637
 77       0.000001743457
 78       0.000000444431
 79      -0.000000661917
 80       0.000002337970
 81      -0.000002283519
 82      -0.000002979572
 83      -0.000000756171
 84       0.000001134887
 85      -0.000006769467
 86       0.000006663705
 87       0.000008610755
 88       0.000002261213
 89      -0.000003246844
 90       0.000000495072
 91      -0.000000570614
 92      -0.000000582896
 93      -0.000000283785
 94       0.000000183654
 95      -0.000000014866
 96       0.000000031986
 97       0.000000009213
 98       0.000000029289
 99       0.000000003986
100      -0.000000070863
101      -0.000000077792
102      -0.000000109757
103       0.000000075273
104      -0.000000265604
105      -0.000000348682
106       0.000000098278
107       0.000000386208
108       0.000000423862
109       0.000000593831
110      -0.000000413561
111       0.000001444972
112       0.000001896372
113      -0.000000536434
114      -0.000001512543
115      -0.000001749220
116      -0.000002257685
117       0.000001752494
118      -0.000005625225
119      -0.000007420700
120       0.000002157377
121       0.000000185431
122      -0.000000848406
123       0.000001590191
124      -0.000004370880
125      -0.000008356217
126      -0.000018157248
127      -0.000000392782
128      -0.000000451943
129      -0.000000429048
130       0.000001492643
131       0.000001717666
132       0.000001632117
133      -0.000004043141
134      -0.000004064482
135      -0.000004099499
136       0.000000059245
137      -0.000000214138
138      -0.000000290176
139       0.000000031584
140      -0.000000140338
141      -0.000000151289
142       0.000001030977
143       0.000001337559
144      -0.000000184730
145       0.000000867193
146      -0.000000174834
147       0.000000089934
148       0.000000111972
149      -0.000000046438
150       0.000000301743
151       0.000000134425
152      -0.000000084114
153       0.000000184663
154      -0.000000845707
155       0.000001588331
156      -0.000004412644
157      -0.000008489275
158      -0.000018239067
159      -0.000000357748
160       0.000000602385
161       0.000000195408
162       0.000001406618
163      -0.000002374342
164      -0.000000770316
165      -0.000003531114
166       0.000005717900
167       0.000001765274
168       0.000000174187
169       0.000000014608
170      -0.000000199046
171       0.000000108393
172       0.000000235188
173      -0.000000824884
174      -0.000000249864
175       0.000000902066
176      -0.000000656448
177      -0.000001272323
178       0.000000140609
179      -0.000000081111
180       0.000000125327
181       0.000000105426
182       0.000000155729
183       0.000000262717
184       0.000000014172
185       0.000000186679
186      -0.000000853178
187       0.000001595528
188      -0.000004335112
189      -0.000008229736
190      -0.000018161014
191       0.000000705883
192      -0.000000094562
193       0.000000212238
194      -0.000002584447
195       0.000000343138
196      -0.000000777059
197       0.000006735262
198      -0.000000688144
199       0.000002115951
200       0.000000198127
201      -0.000000210934
202      -0.000000068927
203      -0.000000268334
204       0.000000119538
205      -0.000000851169
206       0.000000949270
207       0.000000129878
208       0.000001356906
209      -0.000000511542
210       0.000000169901
211       0.000000158375
212      -0.000000031187
213      -0.000000220464
214       0.000000038504
215       0.000000270254
216      -0.000000126226
 Sym=     1a
 Ene= -3.61514385735805E+02
 Spin= Alpha
 Occup= 1.000000
  1      -0.035699991624
  2      -0.043194872425
  3      -0.075349286201
  4      -0.150793539718
  5      -0.203034626743
  6      -0.070365335782
  7       0.485045624743
  8       0.589834564903
  9       0.087196981542
 10       0.004655578122
 11      -0.004110747219
 12       0.002912268093
 13      -0.002083970207
 14       0.001457695419
 15      -0.001031910861
 16       0.000691847334
 17      -0.000223541771
 18       0.000055183619
 19       0.000000832248
 20      -0.000000259912
 21       0.000000390164
 22       0.000001205294
 23      -0.000000412809
 24       0.000000549044
 25       0.000001028239
 26      -0.000000456787
 27       0.000000448361
 28       0.000000215138
 29      -0.000000082947
 30       0.000000118693
 31       0.000000069035
 32      -0.000000134003
 33       0.000000044619
 34      -0.000000195692
 35       0.000000320503
 36      -0.000000135976
 37       0.000000401182
 38      -0.000000619743
 39       0.000000256994
 40      -0.000000764943
 41       0.000001131368
 42      -0.000000457913
 43       0.000000816964
 44      -0.000001588711
 45       0.000000774969
 46      -0.000002211148
 47       0.000003665000
 48      -0.000001762845
 49       0.000000780864
 50      -0.000000892438
 51       0.000000315140
 52      -0.000000187520
 53       0.000000187347
 54      -0.000000054454
 55      -0.000000397688
 56       0.000000445224
 57       0.000000764070
 58       0.000000056202
 59      -0.000000034829
 60       0.000000167357
 61      -0.000000117461
 62      -0.000000165040
 63      -0.000000026665
 64       0.000000144545
 65      -0.000001213434
 66       0.000001165952
 67       0.000001534246
 68       0.000000375179
 69      -0.000000612788
 70       0.000002867457
 71      -0.000002798016
 72      -0.000003647243
 73      -0.000000924169
 74       0.000001398771
 75      -0.000006076043
 76       0.000005937784
 77       0.000007742119
 78       0.000001960237
 79      -0.000002950296
 80       0.000010483582
 81      -0.000010226119
 82      -0.000013363584
 83      -0.000003372979
 84       0.000005099712
 85      -0.000030223715
 86       0.000029745008
 87       0.000038446338
 88       0.000010087282
 89      -0.000014501216
 90       0.000002202334
 91      -0.000002542716
 92      -0.000002589825
 93      -0.000001269152
 94       0.000000814494
 95      -0.000000064887
 96       0.000000142079
 97       0.000000038590
 98       0.000000131455
 99       0.000000018877
100      -0.000000344639
101      -0.000000371026
102      -0.000000530030
103       0.000000362204
104      -0.000001276449
105      -0.000001681123
106       0.000000469149
107       0.000001771318
108       0.000001937655
109       0.000002723879
110      -0.000001890194
111       0.000006620976
112       0.000008690445
113      -0.000002454466
114      -0.000006776765
115      -0.000007834651
116      -0.000010114589
117       0.000007850071
118      -0.000025198770
119      -0.000033243179
120       0.000009663263
121       0.000000699051
122      -0.000003473261
123       0.000006824040
124      -0.000019320395
125      -0.000036975403
126      -0.000080895036
127      -0.000001786337
128      -0.000002055030
129      -0.000001951200
130       0.000006635456
131       0.000007626774
132       0.000007250113
133      -0.000018015377
134      -0.000018077256
135      -0.000018247421
136       0.000000260740
137      -0.000000987864
138      -0.000001330903
139       0.000000146764
140      -0.000000664726
141      -0.000000673386
142       0.000004663283
143       0.000006040458
144      -0.000000833955
145       0.000003936834
146      -0.000000795732
147       0.000000411644
148       0.000000511195
149      -0.000000212237
150       0.000001379640
151       0.000000617154
152      -0.000000386067
153       0.000000697056
154      -0.000003466330
155       0.000006824090
156      -0.000019522705
157      -0.000037580407
158      -0.000081256864
159      -0.000001629740
160       0.000002744511
161       0.000000890262
162       0.000006257773
163      -0.000010559001
164      -0.000003424681
165      -0.000015721499
166       0.000025441562
167       0.000007849399
168       0.000000801931
169       0.000000083739
170      -0.000000911923
171       0.000000511507
172       0.000001097464
173      -0.000003732446
174      -0.000001145725
175       0.000004076738
176      -0.000002980955
177      -0.000005770825
178       0.000000645682
179      -0.000000371043
180       0.000000575752
181       0.000000481510
182       0.000000717657
183       0.000001209528
184       0.000000063672
185       0.000000702993
186      -0.000003489571
187       0.000006840604
188      -0.000019149596
189      -0.000036406535
190      -0.000080922871
191       0.000003205567
192      -0.000000429188
193       0.000000963786
194      -0.000011471530
195       0.000001520420
196      -0.000003450675
197       0.000029988052
198      -0.000003053372
199       0.000009426358
200       0.000000903511
201      -0.000000966788
202      -0.000000299040
203      -0.000001243348
204       0.000000544020
205      -0.000003837359
206       0.000004285356
207       0.000000571134
208       0.000006136932
209      -0.000002304196
210       0.000000771947
211       0.000000719682
212      -0.000000140148
213      -0.000001002278
214       0.000000178689
215       0.000001231713
216      -0.000000573524
 Sym=     1a
 Ene= -3.20586067820823E+02
 Spin= Alpha
 Occup= 1.000000
  1       0.000000060149
  2       0.000000072915
  3       0.000000127533
  4       0.000000255166
  5       0.000000345948
  6       0.000000109710
  7      -0.000000832442
  8      -0.000001116753
  9       0.000000050698
 10      -0.000000008179
 11       0.000000057657
 12      -0.000000043566
 13      -0.000000012499
 14       0.000000006176
 15       0.000000707870
 16      -0.000001241971
 17      -0.000000110907
 18       0.000000067163
 19       0.201312477969
 20       0.217798833730
 21       0.204225637237
 22       0.268120740849
 23       0.290078575314
 24       0.272000809661
 25       0.168179921729
 26       0.181952965792
 27       0.170613662124
 28       0.007946256259
 29       0.008597698406
 30       0.008061595373
 31       0.003190168921
 32       0.003450015852
 33       0.003235608274
 34      -0.002191334496
 35      -0.002368184909
 36      -0.002221701826
 37       0.001336959253
 38       0.001441869011
 39       0.001353958701
 40      -0.000843923189
 41      -0.000905892354
 42      -0.000852522522
 43       0.000539984490
 44       0.000575303695
 45       0.000543308575
 46      -0.000337558354
 47      -0.000351646318
 48      -0.000335233129
 49       0.000124984497
 50       0.000132891078
 51       0.000125509227
 52      -0.000037634689
 53      -0.000040464839
 54      -0.000038038358
 55       0.000000046142
 56       0.000000311752
 57      -0.000000000863
 58       0.000000320835
 59       0.000000157902
 60      -0.000000881181
 61      -0.000000764080
 62      -0.000001160077
 63       0.000000922049
 64      -0.000002221644
 65       0.000002872611
 66       0.000002552271
 67       0.000003660868
 68      -0.000002786900
 69       0.000007081274
 70      -0.000006744010
 71      -0.000005921046
 72      -0.000008706386
 73       0.000006744799
 74      -0.000016679867
 75       0.000013876016
 76       0.000012219203
 77       0.000017906134
 78      -0.000013838867
 79       0.000034377061
 80      -0.000021028604
 81      -0.000018592781
 82      -0.000027054079
 83       0.000020820358
 84      -0.000052192137
 85       0.000021010696
 86       0.000017062987
 87       0.000027162407
 88      -0.000022479287
 89       0.000051092014
 90       0.000001158879
 91       0.000001386230
 92       0.000001205702
 93      -0.000000447852
 94       0.000002960702
 95      -0.000000862190
 96      -0.000000807504
 97      -0.000001048042
 98       0.000000733353
 99      -0.000002120222
100       0.000003969341
101      -0.000000486929
102      -0.000000860518
103      -0.000000369583
104      -0.000002523563
105       0.000001605762
106       0.000000259003
107      -0.000022022796
108       0.000002888598
109       0.000004758498
110       0.000001740777
111       0.000014160186
112      -0.000008738263
113      -0.000001706036
114       0.000022005101
115      -0.000003398019
116      -0.000004153659
117      -0.000004091459
118      -0.000014590250
119       0.000009790285
120       0.000003932072
121       0.000002219325
122      -0.000011258745
123       0.000022316984
124      -0.000062102880
125      -0.000091522118
126      -0.000115193718
127      -0.000009169967
128      -0.000011200558
129      -0.000010431044
130       0.000033655481
131       0.000040863373
132       0.000038081684
133      -0.000017070842
134      -0.000024731065
135      -0.000021776499
136      -0.000000293871
137      -0.000005660605
138      -0.000006804423
139       0.000001222797
140      -0.000006255360
141       0.000001022333
142       0.000024968114
143       0.000029916056
144      -0.000005148957
145       0.000027278090
146      -0.000002818609
147       0.000001678431
148       0.000002090754
149      -0.000001215390
150       0.000005450606
151       0.000002810169
152      -0.000001378186
153      -0.000000860479
154       0.000004369211
155      -0.000008677846
156       0.000024351257
157       0.000035791196
158       0.000044876296
159       0.000004542114
160      -0.000005326987
161      -0.000001179808
162      -0.000014977867
163       0.000020427625
164       0.000005504497
165       0.000007615468
166      -0.000010333184
167      -0.000002800499
168      -0.000002280867
169      -0.000000922397
170       0.000000356468
171       0.000000040427
172      -0.000004342669
173       0.000009293422
174       0.000004206137
175      -0.000003405581
176       0.000002209827
177       0.000017468966
178      -0.000000451293
179       0.000001566813
180      -0.000001705828
181       0.000000968121
182      -0.000000805240
183      -0.000002440146
184      -0.000002746185
185      -0.000001371768
186       0.000006949108
187      -0.000013734438
188       0.000037765600
189       0.000055639684
190       0.000071791681
191      -0.000010390061
192       0.000002512951
193      -0.000002465120
194       0.000037179132
195      -0.000007318259
196       0.000009807820
197      -0.000023478043
198       0.000008331185
199      -0.000004011814
200      -0.000003026559
201       0.000002094816
202      -0.000000996480
203       0.000005036154
204      -0.000003192861
205       0.000012332730
206      -0.000010379119
207       0.000003500931
208      -0.000021737677
209       0.000011337908
210      -0.000001202513
211      -0.000002724939
212       0.000000809280
213       0.000000970956
214      -0.000001501898
215      -0.000002416366
216       0.000003757950
 Sym=     1a
 Ene= -3.20585979189485E+02
 Spin= Alpha
 Occup= 1.000000
  1      -0.000000103872
  2      -0.000000128843
  3      -0.000000212487
  4      -0.000000472581
  5      -0.000000531477
  6      -0.000000354997
  7       0.000002018231
  8       0.000001233255
  9       0.000000506779
 10      -0.000001832291
 11       0.000003466167
 12      -0.000005796930
 13       0.000009944876
 14      -0.000014439306
 15       0.000010394558
 16      -0.000000415399
 17       0.000000048803
 18      -0.000000048632
 19      -0.279945573381
 20       0.223324868951
 21       0.037784490187
 22      -0.372849503653
 23       0.297438518176
 24       0.050324006683
 25      -0.233871230739
 26       0.186569406810
 27       0.031565800070
 28      -0.011050383842
 29       0.008815529848
 30       0.001492133529
 31      -0.004435159857
 32       0.003537767995
 33       0.000597318352
 34       0.003045190164
 35      -0.002428612533
 36      -0.000408624995
 37      -0.001855456258
 38       0.001479090305
 39       0.000246147215
 40       0.001167569268
 41      -0.000930091551
 42      -0.000150507688
 43      -0.000743081357
 44       0.000591193883
 45       0.000091345490
 46       0.000457665121
 47      -0.000359689176
 48      -0.000051106482
 49      -0.000172005362
 50       0.000135954255
 51       0.000021737250
 52       0.000052131790
 53      -0.000041433259
 54      -0.000006890455
 55       0.000000193212
 56      -0.000000047490
 57       0.000000106062
 58      -0.000000163836
 59       0.000000302422
 60      -0.000000124533
 61      -0.000001388195
 62       0.000000848141
 63      -0.000002154489
 64      -0.000001123822
 65       0.000000546499
 66       0.000004405496
 67      -0.000002766370
 68       0.000006958079
 69       0.000003843892
 70      -0.000001193441
 71      -0.000010363165
 72       0.000006538569
 73      -0.000016407925
 74      -0.000008875027
 75       0.000002525711
 76       0.000021346867
 77      -0.000013525290
 78       0.000033793516
 79       0.000018367044
 80      -0.000003869732
 81      -0.000032434626
 82       0.000020400057
 83      -0.000051150108
 84      -0.000027970946
 85       0.000001273983
 86       0.000032364510
 87      -0.000018352208
 88       0.000050540022
 89       0.000024315513
 90       0.000000600489
 91       0.000001984753
 92      -0.000000989098
 93       0.000002778168
 94       0.000002342590
 95      -0.000000197746
 96      -0.000001363589
 97       0.000000775182
 98      -0.000002083207
 99      -0.000001253556
100       0.000000379972
101      -0.000002504630
102       0.000001728892
103       0.000003299570
104       0.000001349892
105       0.000000763971
106       0.000001363563
107      -0.000002416644
108       0.000013756049
109      -0.000009392517
110      -0.000018154095
111      -0.000007444048
112      -0.000004335381
113      -0.000007298543
114       0.000001390920
115      -0.000013879887
116       0.000008385975
117       0.000018279404
118       0.000005797573
119       0.000001567006
120       0.000007530629
121       0.000000127870
122      -0.000000642524
123       0.000001251620
124      -0.000003242264
125      -0.000004544195
126      -0.000007743000
127      -0.000001678074
128       0.000000363406
129      -0.000000369972
130       0.000003920074
131      -0.000000172666
132       0.000001292356
133      -0.000004375979
134       0.000001879916
135      -0.000000154580
136       0.000000303512
137      -0.000001552996
138       0.000000570642
139      -0.000002117609
140      -0.000000829865
141      -0.000000861970
142       0.000004955106
143      -0.000001360869
144       0.000006281110
145       0.000002836014
146      -0.000000352322
147       0.000000470839
148      -0.000000624835
149       0.000002746793
150       0.000000839332
151      -0.000000974275
152      -0.000002394065
153      -0.000001989770
154       0.000010113588
155      -0.000020124023
156       0.000056856739
157       0.000083732537
158       0.000100422747
159       0.000007390668
160      -0.000013823144
161      -0.000004706288
162      -0.000028575952
163       0.000051433564
164       0.000017273877
165       0.000013490544
166      -0.000026228549
167      -0.000008885685
168      -0.000003491859
169      -0.000002340855
170       0.000004161894
171      -0.000004722172
172      -0.000006250504
173       0.000016247520
174       0.000010440766
175      -0.000018388036
176       0.000020055135
177       0.000029125383
178      -0.000002529521
179       0.000000835659
180      -0.000001863372
181      -0.000002289645
182      -0.000002831847
183      -0.000004461552
184       0.000001215046
185       0.000001794683
186      -0.000009087954
187       0.000017949326
188      -0.000049206482
189      -0.000072238484
190      -0.000093947709
191       0.000013425376
192      -0.000001177050
193       0.000004467988
194      -0.000047884269
195       0.000005408228
196      -0.000015127714
197       0.000029381845
198      -0.000002265569
199       0.000010213981
200       0.000002891035
201      -0.000004919298
202       0.000000435584
203      -0.000007005580
204       0.000000605793
205      -0.000012948827
206       0.000019873417
207      -0.000002052157
208       0.000029563536
209      -0.000004337386
210       0.000002705957
211       0.000001330356
212       0.000000100364
213      -0.000004021732
214       0.000000263689
215       0.000004337606
216      -0.000000036811
 Sym=     1a
 Ene= -3.20585691642918E+02
 Spin= Alpha
 Occup= 1.000000
  1       0.000000030130
  2       0.000000038222
  3       0.000000058857
  4       0.000000146410
  5       0.000000131763
  6       0.000000158475
  7      -0.000000703766
  8      -0.000000211554
  9      -0.000000429538
 10       0.000001247123
 11      -0.000002228447
 12       0.000003597793
 13      -0.000005742509
 14       0.000008052245
 15      -0.000008106296
 16       0.000004674945
 17       0.000000358117
 18      -0.000000210389
 19      -0.103802288482
 20      -0.179890526175
 21       0.294168014194
 22      -0.138251386426
 23      -0.239590984370
 24       0.391793955119
 25      -0.086717773668
 26      -0.150282928864
 27       0.245751825779
 28      -0.004100535792
 29      -0.007105353389
 30       0.011619530902
 31      -0.001637966508
 32      -0.002840395159
 33       0.004643973106
 34       0.001117068761
 35       0.001939146195
 36      -0.003169522900
 37      -0.000665920718
 38      -0.001160001947
 39       0.001894173819
 40       0.000394873764
 41       0.000694625131
 42      -0.001131124537
 43      -0.000227015261
 44      -0.000406538257
 45       0.000658723856
 46       0.000123452231
 47       0.000226089736
 48      -0.000364414761
 49      -0.000059213144
 50      -0.000103781077
 51       0.000169257875
 52       0.000018993438
 53       0.000032999675
 54      -0.000053936053
 55       0.000000161555
 56       0.000000264439
 57      -0.000000208486
 58      -0.000000192132
 59      -0.000000134492
 60       0.000000016683
 61       0.000000018462
 62      -0.000000097210
 63       0.000000080141
 64       0.000000069104
 65      -0.000000081588
 66       0.000000000783
 67       0.000000119118
 68      -0.000000386357
 69      -0.000000201905
 70       0.000000189236
 71       0.000000133949