[Molden Format]
[Title]
 Molden file created by orca_2mkl for BaseName=/home/smirnovaanastasia2304_2125/_scratch/HERBD/Yb_OH_cc

[Atoms] AU
Yb   1  70         -0.2930832953         0.3744662410        -0.4018616007 
O    2   8         -1.4302052094         2.8478021660        -0.2395681409 
O    3   8         -1.4129727968        -1.6720107860        -1.8165899531 
O    4   8          2.0808511454        -0.0749011850         0.9020796673 
H    5   1          3.6055521101        -0.3578442099         1.7274761378 
H    6   1         -2.1719983060         4.4474496692        -0.1371336461 
H    7   1         -2.1382005541        -2.9896998117        -2.7378219947 
[GTO]
  1 0
s   6 1.0 
  1358076.4019249999      2707.2930152518
   603589.5119670000      -738.3436407800
   268262.0053190000      1561.8093109918
   119227.5579190000       321.3188957239
    52990.0257420000       910.2592971992
    23551.1225520000       650.0002417902
s   1 1.0 
    10467.1655790000       737.5337741991
s   1 1.0 
     4652.0735910000       401.4625366565
s   1 1.0 
     2067.5882620000       218.5285256475
s   1 1.0 
      918.9281170000       118.9518627382
s   1 1.0 
      408.4124960000        64.7491927610
s   1 1.0 
      181.5166650000        35.2449963543
s   1 1.0 
       80.6740730000        19.1849459526
s   1 1.0 
       35.8551440000        10.4429619475
s   1 1.0 
       15.9356190000         5.6844283346
s   1 1.0 
        7.0824980000         3.0942110849
s   1 1.0 
        3.1477770000         1.6842752256
s   1 1.0 
        1.3990120000         0.9168033087
s   1 1.0 
        0.6217830000         0.4990444444
s   1 1.0 
        0.2763480000         0.2716453884
s   1 1.0 
        0.1228210000         0.1478647196
s   1 1.0 
        0.0545870000         0.0804872358
s   1 1.0 
        0.0242610000         0.0438118524
p   5 1.0 
    18741.9577990000      4543.1010834218
     7496.7831200000      1702.6495515717
     2998.7132480000      2688.5302230256
     1199.4852990000      2527.9583676190
      479.7941200000      2363.5203868406
p   1 1.0 
      191.9176480000      1018.2014909638
p   1 1.0 
       76.7670590000       323.8983356454
p   1 1.0 
       30.7068240000       103.0347478518
p   1 1.0 
       12.2827290000        32.7762056036
p   1 1.0 
        4.9130920000        10.4263838277
p   1 1.0 
        1.9652370000         3.3167195680
p   1 1.0 
        0.7860950000         1.0550763307
p   1 1.0 
        0.3144380000         0.3356285290
p   1 1.0 
        0.1257750000         0.1067660057
p   1 1.0 
        0.0503100000         0.0339631517
p   1 1.0 
        0.0201240000         0.0108039602
d   4 1.0 
     1379.8152340000      7325.4223721174
      501.7509940000      6870.7279056516
      182.4549070000      6434.1168847394
       66.3472390000      3527.4353518373
d   1 1.0 
       24.1262690000       748.7345495231
d   1 1.0 
        8.7731890000       127.4957426618
d   1 1.0 
        3.1902500000        21.7101757349
d   1 1.0 
        1.1600910000         3.6968445084
d   1 1.0 
        0.4218510000         0.6295039778
d   1 1.0 
        0.1534000000         0.1071925155
d   1 1.0 
        0.0557820000         0.0182530198
d   1 1.0 
        0.0202840000         0.0031080564
f   4 1.0 
       41.1409390000      2636.1638558181
       13.7136460000       730.3196574878
        4.5712150000        90.4591085871
        1.5237380000         5.2735892425
f   1 1.0 
        0.5079130000         1.2417268408
f   1 1.0 
        0.1693040000         0.1048337984

  2 0
s   6 1.0 
    27032.3826310000         1.4645050749
     4052.3871392000         1.8244031008
      922.3272271000         2.8547160967
      261.2407098900         4.3654874290
       85.3546413500         5.8940772662
       31.0350352400         6.2963020147
s   1 1.0 
       12.2608607300         4.6698272139
s   1 1.0 
        4.9987076000         2.3826123703
s   1 1.0 
        1.1703108200         0.8019291632
s   1 1.0 
        0.4647474100        -0.4011648063
s   1 1.0 
        0.1850453600         0.2010799377
p   4 1.0 
       63.2749548000         3.0898340730
       14.6270493800         3.3923831935
        4.4501223500         2.9482801524
        1.5275799600         1.7113350234
p   1 1.0 
        0.5293511800         0.6436057935
p   1 1.0 
        0.1747842100         0.1610897223
d   1 1.0 
        2.3140000000        12.3767310624
d   1 1.0 
        0.6450000000         1.3234257612
f   1 1.0 
        1.4280000000        12.7097950062

  3 0
s   6 1.0 
    27032.3826310000         1.4645050749
     4052.3871392000         1.8244031008
      922.3272271000         2.8547160967
      261.2407098900         4.3654874290
       85.3546413500         5.8940772662
       31.0350352400         6.2963020147
s   1 1.0 
       12.2608607300         4.6698272139
s   1 1.0 
        4.9987076000         2.3826123703
s   1 1.0 
        1.1703108200         0.8019291632
s   1 1.0 
        0.4647474100        -0.4011648063
s   1 1.0 
        0.1850453600         0.2010799377
p   4 1.0 
       63.2749548000         3.0898340730
       14.6270493800         3.3923831935
        4.4501223500         2.9482801524
        1.5275799600         1.7113350234
p   1 1.0 
        0.5293511800         0.6436057935
p   1 1.0 
        0.1747842100         0.1610897223
d   1 1.0 
        2.3140000000        12.3767310624
d   1 1.0 
        0.6450000000         1.3234257612
f   1 1.0 
        1.4280000000        12.7097950062

  4 0
s   6 1.0 
    27032.3826310000         1.4645050749
     4052.3871392000         1.8244031008
      922.3272271000         2.8547160967
      261.2407098900         4.3654874290
       85.3546413500         5.8940772662
       31.0350352400         6.2963020147
s   1 1.0 
       12.2608607300         4.6698272139
s   1 1.0 
        4.9987076000         2.3826123703
s   1 1.0 
        1.1703108200         0.8019291632
s   1 1.0 
        0.4647474100        -0.4011648063
s   1 1.0 
        0.1850453600         0.2010799377
p   4 1.0 
       63.2749548000         3.0898340730
       14.6270493800         3.3923831935
        4.4501223500         2.9482801524
        1.5275799600         1.7113350234
p   1 1.0 
        0.5293511800         0.6436057935
p   1 1.0 
        0.1747842100         0.1610897223
d   1 1.0 
        2.3140000000        12.3767310624
d   1 1.0 
        0.6450000000         1.3234257612
f   1 1.0 
        1.4280000000        12.7097950062

  5 0
s   3 1.0 
       34.0613410000         0.2556300129
        5.1235746000         0.4613599287
        1.1646626000         0.6811215012
s   1 1.0 
        0.3272304100         0.3083545312
s   1 1.0 
        0.1030724100         0.1296483265
p   1 1.0 
        0.8000000000         1.0784563492

  6 0
s   3 1.0 
       34.0613410000         0.2556300129
        5.1235746000         0.4613599287
        1.1646626000         0.6811215012
s   1 1.0 
        0.3272304100         0.3083545312
s   1 1.0 
        0.1030724100         0.1296483265
p   1 1.0 
        0.8000000000         1.0784563492

  7 0
s   3 1.0 
       34.0613410000         0.2556300129
        5.1235746000         0.4613599287
        1.1646626000         0.6811215012
s   1 1.0 
        0.3272304100         0.3083545312
s   1 1.0 
        0.1030724100         0.1296483265
p   1 1.0 
        0.8000000000         1.0784563492

[5D]
[7F]
[9G]
[MO]
 Sym=     1a
 Ene= -2.26122428756583E+03
 Spin= Alpha
 Occup= 1.000000
  1       0.097624177064
  2       0.105337923092
  3       0.178973743020
  4       0.301053251970
  5       0.331948483111
  6       0.165100037506
  7       0.008757391588
  8       0.003432807101
  9      -0.002500744708
 10       0.001663642192
 11      -0.001126123364
 12       0.000768910378
 13      -0.000528198762
 14       0.000340450363
 15      -0.000200302658
 16       0.000231633820
 17      -0.000042601047
 18       0.000010148446
 19      -0.000000073588
 20       0.000000016498
 21      -0.000000036063
 22       0.000000026888
 23      -0.000000003694
 24       0.000000008413
 25      -0.000000033733
 26       0.000000005343
 27      -0.000000012924
 28       0.000000033038
 29      -0.000000003800
 30       0.000000010854
 31      -0.000000042832
 32       0.000000003459
 33      -0.000000012393
 34       0.000000062586
 35      -0.000000003175
 36       0.000000016040
 37      -0.000000077634
 38      -0.000000002865
 39      -0.000000011830
 40       0.000000109107
 41       0.000000002443
 42       0.000000020500
 43      -0.000000733596
 44       0.000000197531
 45      -0.000000385210
 46       0.000002140451
 47      -0.000000397376
 48       0.000000926184
 49      -0.000000215865
 50       0.000000043936
 51      -0.000000098205
 52       0.000000047268
 53      -0.000000009797
 54       0.000000022775
 55      -0.000000208431
 56       0.000000285988
 57       0.000000175666
 58      -0.000000078080
 59      -0.000000101350
 60       0.000000418260
 61      -0.000000567802
 62      -0.000000355275
 63       0.000000164526
 64       0.000000201746
 65      -0.000000802182
 66       0.000001085052
 67       0.000000683004
 68      -0.000000320256
 69      -0.000000386041
 70       0.000001507122
 71      -0.000002030194
 72      -0.000001286935
 73       0.000000612210
 74       0.000000723226
 75      -0.000001948355
 76       0.000002589544
 77       0.000001680131
 78      -0.000000832127
 79      -0.000000926235
 80      -0.000006012922
 81       0.000008042489
 82       0.000005152516
 83      -0.000002573298
 84      -0.000002871512
 85      -0.000012661119
 86       0.000017789357
 87       0.000010464266
 88      -0.000004109521
 89      -0.000006282813
 90      -0.000000417189
 91       0.000000572394
 92       0.000000350627
 93      -0.000000156637
 94      -0.000000203150
 95       0.000000281402
 96      -0.000000384265
 97      -0.000000238046
 98       0.000000108321
 99       0.000000136150
100      -0.000000022037
101       0.000000050260
102      -0.000000160054
103       0.000000216902
104      -0.000000213181
105      -0.000000378315
106       0.000000103315
107      -0.000000353343
108       0.000001184832
109      -0.000003682216
110       0.000004776609
111      -0.000004861879
112      -0.000008585966
113       0.000002297130
114      -0.000000665439
115       0.000001419942
116      -0.000004451307
117       0.000006129005
118      -0.000006000178
119      -0.000010613478
120       0.000002901715
121      -0.000000039271
122       0.000000268503
123      -0.000000923716
124       0.000009535735
125       0.000021394883
126      -0.000058227877
127       0.000000552152
128      -0.000001287838
129      -0.000000107273
130      -0.000003871326
131       0.000009016228
132       0.000000749806
133      -0.000001893770
134       0.000004521941
135       0.000000384618
136      -0.000000020296
137      -0.000000271466
138      -0.000000096700
139      -0.000000180141
140      -0.000000163233
141       0.000005756506
142       0.000001530395
143      -0.000000773830
144       0.000007196258
145       0.000008080626
146      -0.000000194861
147       0.000000469321
148      -0.000001136164
149       0.000000127563
150      -0.000000474879
151      -0.000001760738
152       0.000000575449
153      -0.000000038330
154       0.000000264411
155      -0.000000916218
156       0.000009491489
157       0.000021272095
158      -0.000058285719
159       0.000000543124
160       0.000001081429
161       0.000000719079
162      -0.000003776081
163      -0.000007503291
164      -0.000004977076
165      -0.000001917328
166      -0.000003838201
167      -0.000002473815
168       0.000000134819
169      -0.000000111978
170       0.000000128703
171      -0.000000096200
172       0.000000292960
173       0.000000620136
174      -0.000003749386
175      -0.000008219174
176       0.000004356642
177      -0.000007159682
178       0.000000707309
179      -0.000000046264
180      -0.000000469244
181       0.000001001127
182      -0.000001289828
183      -0.000001358224
184       0.000000009602
185      -0.000000027056
186       0.000000215264
187      -0.000000824748
188       0.000008887348
189       0.000019247848
190      -0.000059837621
191      -0.000001220750
192       0.000000232224
193      -0.000000668768
194       0.000007578864
195      -0.000001452051
196       0.000004174650
197       0.000005081810
198      -0.000001020551
199       0.000002898581
200       0.000000091164
201       0.000000063894
202      -0.000000188074
203       0.000000314217
204      -0.000000020468
205       0.000001436213
206      -0.000007961606
207       0.000002158233
208      -0.000007973095
209       0.000002738532
210      -0.000000794795
211       0.000000191892
212      -0.000000230791
213       0.000001424514
214      -0.000000735590
215      -0.000001278211
216       0.000000632375
217       0.000002027040
218       0.000012687308
219       0.000000471569
220      -0.000003468108
221       0.000000639165
222      -0.000001870168
223       0.000002090913
224       0.000012780395
225       0.000000619317
226       0.000001731103
227      -0.000003674109
228      -0.000000219078
229       0.000002091777
230       0.000012790635
231       0.000000620743
232       0.000001688850
233       0.000003010696
234       0.000002130487
 Sym=     1a
 Ene= -3.88470871471143E+02
 Spin= Alpha
 Occup= 1.000000
  1      -0.037448506092
  2      -0.044753357176
  3      -0.076786484626
  4      -0.152412790535
  5      -0.201592477154
  6      -0.062874601689
  7       0.493295867942
  8       0.582350999903
  9       0.081801845184
 10       0.004968533544
 11      -0.004396405318
 12       0.003154022038
 13      -0.002303659673
 14       0.001531086206
 15      -0.000914366155
 16       0.001067315026
 17      -0.000194631555
 18       0.000046462301
 19      -0.000002201190
 20       0.000000623236
 21      -0.000001369447
 22      -0.000003153261
 23       0.000000884758
 24      -0.000001942418
 25      -0.000002585373
 26       0.000000715969
 27      -0.000001579349
 28      -0.000000157850
 29       0.000000060874
 30      -0.000000121806
 31      -0.000000215246
 32       0.000000028037
 33      -0.000000083726
 34       0.000000269271
 35      -0.000000014318
 36       0.000000072335
 37      -0.000000321021
 38      -0.000000018292
 39      -0.000000043127
 40       0.000000477281
 41       0.000000015498
 42       0.000000085451
 43      -0.000003385248
 44       0.000000908095
 45      -0.000001770701
 46       0.000009820861
 47      -0.000001820487
 48       0.000004242091
 49      -0.000000989362
 50       0.000000201072
 51      -0.000000449947
 52       0.000000218591
 53      -0.000000045126
 54       0.000000105046
 55      -0.000023822510
 56       0.000032953786
 57       0.000019962375
 58      -0.000008588486
 59      -0.000011647938
 60      -0.000001749197
 61       0.000002451804
 62       0.000001454168
 63      -0.000000594084
 64      -0.000000861332
 65      -0.000002603124
 66       0.000003497004
 67       0.000002224858
 68      -0.000001068895
 69      -0.000001247984
 70       0.000006264584
 71      -0.000008431931
 72      -0.000005350458
 73       0.000002551696
 74       0.000003005905
 75      -0.000008988365
 76       0.000011960519
 77       0.000007743399
 78      -0.000003820650
 79      -0.000004277380
 80      -0.000026393544
 81       0.000035217862
 82       0.000022655517
 83      -0.000011413063
 84      -0.000012582087
 85      -0.000058782596
 86       0.000082575607
 87       0.000048591205
 88      -0.000019109615
 89      -0.000029163722
 90      -0.000001905580
 91       0.000002621370
 92       0.000001598324
 93      -0.000000705254
 94      -0.000000929938
 95       0.000001270624
 96      -0.000001736544
 97      -0.000001074193
 98       0.000000487158
 99       0.000000615157
100      -0.000000128840
101       0.000000298649
102      -0.000000949689
103       0.000001285006
104      -0.000001265306
105      -0.000002244083
106       0.000000612049
107      -0.000001514459
108       0.000005165040
109      -0.000016049947
110       0.000020780319
111      -0.000021177642
112      -0.000037398558
113       0.000009998067
114      -0.000003086389
115       0.000006592002
116      -0.000020663995
117       0.000028449042
118      -0.000027852775
119      -0.000049267086
120       0.000013469943
121      -0.000000169817
122       0.000001293423
123      -0.000004327351
124       0.000043093172
125       0.000095215361
126      -0.000269967956
127       0.000002583626
128      -0.000006005908
129      -0.000000495414
130      -0.000017110684
131       0.000039849139
132       0.000003312530
133      -0.000009246647
134       0.000022005241
135       0.000001860670
136      -0.000000220529
137      -0.000001223683
138      -0.000000409387
139      -0.000000950037
140      -0.000000903064
141       0.000026069576
142       0.000006857351
143      -0.000003507941
144       0.000032525397
145       0.000036580350
146      -0.000000907881
147       0.000002215420
148      -0.000005317022
149       0.000000497970
150      -0.000002119135
151      -0.000008174903
152       0.000002648147
153      -0.000000166150
154       0.000001276094
155      -0.000004293862
156       0.000042887815
157       0.000094652672
158      -0.000270226478
159       0.000002540817
160       0.000005038483
161       0.000003356230
162      -0.000016685546
163      -0.000033152122
164      -0.000021990127
165      -0.000009343113
166      -0.000018657162
167      -0.000012058498
168       0.000000578085
169      -0.000000402016
170       0.000000751128
171      -0.000000516514
172       0.000001449722
173       0.000002831087
174      -0.000017027491
175      -0.000037187237
176       0.000019676428
177      -0.000032365166
178       0.000003375059
179      -0.000000262927
180      -0.000002146081
181       0.000004621574
182      -0.000006035108
183      -0.000006239555
184       0.000000017834
185      -0.000000122725
186       0.000001069320
187      -0.000003888489
188       0.000040103482
189       0.000085420108
190      -0.000277214005
191      -0.000005673171
192       0.000001079013
193      -0.000003108421
194       0.000033330377
195      -0.000006387273
196       0.000018362175
197       0.000024459490
198      -0.000004898834
199       0.000013924813
200       0.000000363981
201       0.000000472025
202      -0.000000874378
203       0.000001566461
204      -0.000000155544
205       0.000006524311
206      -0.000036014623
207       0.000009718440
208      -0.000036005921
209       0.000012386466
210      -0.000003755089
211       0.000000880229
212      -0.000001007856
213       0.000006635377
214      -0.000003368659
215      -0.000005854190
216       0.000002940295
217       0.000009105393
218       0.000057976652
219       0.000001794978
220      -0.000015784427
221       0.000002910277
222      -0.000008513288
223       0.000009396639
224       0.000058391063
225       0.000002475112
226       0.000007868649
227      -0.000016720634
228      -0.000001002577
229       0.000009399532
230       0.000058437427
231       0.000002481171
232       0.000007676534
233       0.000013704994
234       0.000009690125
 Sym=     1a
 Ene= -3.43415653887027E+02
 Spin= Alpha
 Occup= 1.000000
  1      -0.000000021529
  2      -0.000000025781
  3      -0.000000044457
  4      -0.000000088011
  5      -0.000000118173
  6      -0.000000030028
  7       0.000000306758
  8       0.000000327613
  9      -0.000000000821
 10       0.000000033476
 11      -0.000000074378
 12       0.000000184530
 13      -0.000000408310
 14      -0.000000515940
 15       0.000002237681
 16       0.000000780299
 17      -0.000000036100
 18       0.000000044882
 19       0.005102181166
 20      -0.343456614864
 21      -0.117635070933
 22       0.006737960720
 23      -0.453570248881
 24      -0.155349370716
 25       0.004198478777
 26      -0.282622703556
 27      -0.096799236774
 28       0.000188092954
 29      -0.012662658679
 30      -0.004337024391
 31       0.000082191631
 32      -0.005530706555
 33      -0.001894244356
 34      -0.000057775806
 35       0.003885018219
 36       0.001330551906
 37       0.000038011097
 38      -0.002549617058
 39      -0.000873097874
 40      -0.000026820813
 41       0.001789457654
 42       0.000612724346
 43       0.000013345109
 44      -0.000904061613
 45      -0.000310120019
 46       0.000018183996
 47      -0.001308652264
 48      -0.000446578256
 49      -0.000001923058
 50       0.000135726052
 51       0.000046227371
 52       0.000000396668
 53      -0.000028719728
 54      -0.000009795710
 55       0.000000469325
 56       0.000000410043
 57       0.000000613066
 58       0.000000292646
 59       0.000001208753
 60       0.000002216667
 61       0.000002325033
 62       0.000003174786
 63       0.000001306514
 64       0.000006557781
 65      -0.000007214914
 66      -0.000007552939
 67      -0.000010316696
 68      -0.000004253721
 69      -0.000021325677
 70       0.000016876776
 71       0.000017650654
 72       0.000024109892
 73       0.000009951368
 74       0.000049857394
 75      -0.000026511367
 76      -0.000027710727
 77      -0.000037852943
 78      -0.000015621253
 79      -0.000078218829
 80      -0.000047157509
 81      -0.000048836823
 82      -0.000066714956
 83      -0.000028068776
 84      -0.000139657981
 85       0.000200194553
 86       0.000210863732
 87       0.000287731241
 88       0.000118461632
 89       0.000596728182
 90      -0.000018342380
 91      -0.000019285229
 92      -0.000026331721
 93      -0.000010841828
 94      -0.000054439615
 95       0.000006212447
 96       0.000006526192
 97       0.000008922002
 98       0.000003651204
 99       0.000018406453
100      -0.000002376413
101       0.000001811366
102      -0.000001872544
103      -0.000002076025
104       0.000002835481
105      -0.000001427443
106       0.000000774214
107      -0.000030673528
108       0.000017139438
109      -0.000023386265
110      -0.000031061525
111       0.000026643901
112      -0.000013892619
113       0.000020868096
114       0.000058520979
115      -0.000035986065
116       0.000044957673
117       0.000056730949
118      -0.000056851333
119       0.000028230581
120      -0.000033094699
121      -0.000005457424
122       0.000029233643
123      -0.000065484917
124       0.000299457992
125       0.000639793019
126       0.001498569446
127       0.000014638921
128      -0.000032112183
129      -0.000002190376
130      -0.000031021768
131       0.000082785114
132       0.000009793492
133       0.000327527735
134      -0.000757408691
135      -0.000062999225
136      -0.000007185856
137      -0.000000682121
138       0.000002291636
139      -0.000009015739
140      -0.000008688949
141       0.000113108891
142       0.000010087485
143      -0.000027487926
144       0.000133889578
145       0.000144344886
146      -0.000003132073
147       0.000016963743
148      -0.000033369366
149      -0.000003194474
150      -0.000002412550
151      -0.000047252418
152       0.000007911209
153       0.000005377942
154      -0.000028807848
155       0.000064521499
156      -0.000294600172
157      -0.000629277186
158      -0.001477438213
159      -0.000014160669
160      -0.000026219555
161      -0.000018036905
162       0.000028738969
163       0.000068849857
164       0.000041880370
165      -0.000315796512
166      -0.000627407668
167      -0.000419053119
168       0.000001869821
169      -0.000004685523
170      -0.000009917040
171       0.000006091931
172      -0.000006971380
173      -0.000024845140
174       0.000078930367
175       0.000153001825
176      -0.000084512359
177       0.000115172437
178      -0.000026129883
179       0.000007020695
180       0.000010333429
181      -0.000019590548
182       0.000039948888
183       0.000028214582
184      -0.000002301387
185       0.000000076017
186      -0.000000407960
187       0.000000914543
188      -0.000004070120
189      -0.000008407598
190      -0.000020693221
191       0.000000438392
192      -0.000001134919
193      -0.000000135577
194      -0.000000693145
195       0.000022630175
196       0.000007548094
197       0.000010361834
198      -0.000062303301
199      -0.000015531112
200       0.000001104931
201       0.000000964573
202       0.000001578361
203       0.000000457678
204       0.000003288200
205      -0.000009385638
206      -0.000007097915
207      -0.000013276930
208      -0.000003049303
209      -0.000027512714
210       0.000000255745
211      -0.000003566375
212       0.000000417940
213      -0.000003607165
214      -0.000005353798
215       0.000003022197
216       0.000006499246
217      -0.000000439074
218      -0.000004919963
219      -0.000001134104
220       0.000000988139
221       0.000015102483
222       0.000005894571
223       0.000033378003
224       0.000335587584
225       0.000080961615
226       0.000039861777
227      -0.000073013744
228      -0.000000987408
229      -0.000032977861
230      -0.000332355864
231      -0.000080474995
232      -0.000038844727
233      -0.000056897803
234      -0.000044722067
 Sym=     1a
 Ene= -3.43414970363663E+02
 Spin= Alpha
 Occup= 1.000000
  1       0.000000325261
  2       0.000000391466
  3       0.000000665035
  4       0.000001351365
  5       0.000001734911
  6       0.000000572669
  7      -0.000004941611
  8      -0.000004348168
  9      -0.000001042695
 10       0.000001414361
 11      -0.000002211967
 12       0.000002778581
 13      -0.000001715535
 14       0.000005893056
 15      -0.000003855841
 16      -0.000078606427
 17       0.000010671264
 18      -0.000002407712
 19      -0.313731777302
 20       0.055028530480
 21      -0.174273112489
 22      -0.414316170409
 23       0.072671023706
 24      -0.230146175353
 25      -0.258160438492
 26       0.045281334903
 27      -0.143404098870
 28      -0.011567912425
 29       0.002028987611
 30      -0.006425798891
 31      -0.005047109314
 32       0.000885310200
 33      -0.002803585353
 34       0.003538892844
 35      -0.000620815913
 36       0.001965788568
 37      -0.002309380676
 38       0.000405260389
 39      -0.001282790139
 40       0.001602994568
 41      -0.000281456637
 42       0.000890273527
 43      -0.000816093634
 44       0.000142853417
 45      -0.000452773558
 46      -0.001183707082
 47       0.000208734566
 48      -0.000660128517
 49       0.000118108834
 50      -0.000020915605
 51       0.000065907428
 52      -0.000024277810
 53       0.000004288870
 54      -0.000013537467
 55      -0.000000187629
 56       0.000000738027
 57      -0.000000066100
 58       0.000000440250
 59      -0.000000291080
 60      -0.000000727817
 61      -0.000003532732
 62       0.000003232378
 63      -0.000006739030
 64       0.000001272102
 65       0.000002430507
 66       0.000011056657
 67      -0.000010363710
 68       0.000021450642
 69      -0.000003976751
 70      -0.000005741060
 71      -0.000025261287
 72       0.000023989708
 73      -0.000049465586
 74       0.000009077219
 75       0.000008836529
 76       0.000038810860
 77      -0.000036986711
 78       0.000076278877
 79      -0.000013907072
 80       0.000021075234
 81       0.000067906496
 82      -0.000072229669
 83       0.000143020894
 84      -0.000024634587
 85      -0.000072625347
 86      -0.000331765441
 87       0.000305792438
 88      -0.000632328063
 89       0.000120638710
 90       0.000006261940
 91       0.000030975541
 92      -0.000027942103
 93       0.000058362158
 94      -0.000011212655
 95      -0.000002029576
 96      -0.000010286934
 97       0.000009268231
 98      -0.000019406888
 99       0.000003716018
100      -0.000003039609
101      -0.000000071692
102       0.000001676631
103       0.000002432375
104       0.000000512155
105       0.000000833110
106       0.000000941731
107      -0.000040706451
108      -0.000000915285
109       0.000022683519
110       0.000031519767
111       0.000007142324
112       0.000012797609
113       0.000012824600
114       0.000084054591
115       0.000000152903
116      -0.000042643887
117      -0.000069947425
118      -0.000009831005
119      -0.000017920471
120      -0.000028445949
121       0.000003027144
122      -0.000016175091
123       0.000036078873
124      -0.000164210905
125      -0.000354892437
126      -0.000835995384
127      -0.000008365733
128       0.000017446247
129       0.000000941907
130       0.000036140395
131      -0.000044320270
132       0.000006795324
133      -0.000226956540
134       0.000392192614
135      -0.000002858184
136       0.000004165007
137      -0.000000522783
138       0.000000803687
139       0.000002507658
140       0.000006827805
141      -0.000063270072
142       0.000000559386
143      -0.000000743993
144      -0.000055096878
145      -0.000094523581
146       0.000006743965
147      -0.000005748580
148       0.000017776850
149       0.000006552869
150       0.000005846552
151       0.000021724549
152      -0.000015277617
153       0.000003157363
154      -0.000016870564
155       0.000037624220
156      -0.000171048689
157      -0.000369827530
158      -0.000873009510
159      -0.000008589315
160      -0.000014916557
161      -0.000010577779
162       0.000036492285
163       0.000031948680
164       0.000033676557
165      -0.000231759994
166      -0.000322194373
167      -0.000258412814
168       0.000000231397
169      -0.000004766453
170      -0.000005216583
171       0.000000462255
172      -0.000005162717
173      -0.000007498220
174       0.000060652321
175       0.000084530711
176      -0.000025775799
177       0.000075694017
178      -0.000015355176
179       0.000000814771
180       0.000003041993
181      -0.000019196291
182       0.000016734422
183       0.000017193134
184       0.000008565953
185      -0.000006380883
186       0.000034053014
187      -0.000075677483
188       0.000336147770
189       0.000720776873
190       0.001767934217