[Molden Format]
[Title]
 Molden file created by orca_2mkl for BaseName=/home/smirnovaanastasia2304_2125/_scratch/O2_cc/Dy_O2_cc

[Atoms] AU
Dy   1  66         -0.2750194032        -0.3528893480        -1.5586291077 
O    2   8         -1.4753356489         2.5916441194        -0.6133162859 
O    3   8          2.9252922759        -0.5771450380        -0.7060413679 
[GTO]
  1 0
s   6 1.0 
  1205955.4869470000      2343.1624566555
   535980.2164210000      -627.7994472729
   238213.4295200000      1364.0035146170
   105872.6353420000       302.4256254711
    47054.5045970000       818.7689739381
    20913.1131540000       608.0650635993
s   1 1.0 
     9294.7169570000       674.6635063570
s   1 1.0 
     4130.9853140000       367.2402974633
s   1 1.0 
     1835.9934730000       199.9002981809
s   1 1.0 
      815.9970990000       108.8119399830
s   1 1.0 
      362.6653770000        59.2297179326
s   1 1.0 
      161.1846120000        32.2405747875
s   1 1.0 
       71.6376050000        17.5495459929
s   1 1.0 
       31.8389360000         9.5527629667
s   1 1.0 
       14.1506380000         5.1998654726
s   1 1.0 
        6.2891720000         2.8304481031
s   1 1.0 
        2.7951880000         1.5407009828
s   1 1.0 
        1.2423060000         0.8386515023
s   1 1.0 
        0.5521360000         0.4565040562
s   1 1.0 
        0.2453940000         0.2484895028
s   1 1.0 
        0.1090640000         0.1352605530
s   1 1.0 
        0.0484730000         0.0736266459
s   1 1.0 
        0.0215430000         0.0400764947
p   5 1.0 
    16500.5200280000      3551.8560429283
     6600.2080110000      1399.7999583687
     2640.0832040000      2214.2919302472
     1056.0332820000      2141.5505502747
      422.4133130000      2025.6781866708
p   1 1.0 
      168.9653250000       868.3345329533
p   1 1.0 
       67.5861300000       276.2244147341
p   1 1.0 
       27.0344520000        87.8692766435
p   1 1.0 
       10.8137810000        27.9519461152
p   1 1.0 
        4.3255120000         8.8917447952
p   1 1.0 
        1.7302050000         2.8285381540
p   1 1.0 
        0.6920820000         0.8997814396
p   1 1.0 
        0.2768330000         0.2862281950
p   1 1.0 
        0.1107330000         0.0910513565
p   1 1.0 
        0.0442930000         0.0289640280
p   1 1.0 
        0.0177170000         0.0092135674
d   4 1.0 
     1185.0486620000      5578.8882618905
      430.9267860000      5315.6245441556
      156.7006500000      4970.6577614337
       56.9820540000      2696.5017083068
d   1 1.0 
       20.7207470000       573.6929957731
d   1 1.0 
        7.5348170000        97.6893734623
d   1 1.0 
        2.7399330000        16.6347004211
d   1 1.0 
        0.9963390000         2.8325824609
d   1 1.0 
        0.3623050000         0.4823365324
d   1 1.0 
        0.1317470000         0.0821327509
d   1 1.0 
        0.0479080000         0.0139856983
d   1 1.0 
        0.0174210000         0.0023814857
f   4 1.0 
       33.8369440000      1676.3832547388
       11.2789810000       461.3524932850
        3.7596600000        58.3481478782
        1.2532200000         3.4646432581
f   1 1.0 
        0.4177400000         0.7999055676
f   1 1.0 
        0.1392470000         0.0675333410

  2 0
s   6 1.0 
    27032.3826310000         1.4645050749
     4052.3871392000         1.8244031008
      922.3272271000         2.8547160967
      261.2407098900         4.3654874290
       85.3546413500         5.8940772662
       31.0350352400         6.2963020147
s   1 1.0 
       12.2608607300         4.6698272139
s   1 1.0 
        4.9987076000         2.3826123703
s   1 1.0 
        1.1703108200         0.8019291632
s   1 1.0 
        0.4647474100        -0.4011648063
s   1 1.0 
        0.1850453600         0.2010799377
p   4 1.0 
       63.2749548000         3.0898340730
       14.6270493800         3.3923831935
        4.4501223500         2.9482801524
        1.5275799600         1.7113350234
p   1 1.0 
        0.5293511800         0.6436057935
p   1 1.0 
        0.1747842100         0.1610897223
d   1 1.0 
        2.3140000000        12.3767310624
d   1 1.0 
        0.6450000000         1.3234257612
f   1 1.0 
        1.4280000000        12.7097950062

  3 0
s   6 1.0 
    27032.3826310000         1.4645050749
     4052.3871392000         1.8244031008
      922.3272271000         2.8547160967
      261.2407098900         4.3654874290
       85.3546413500         5.8940772662
       31.0350352400         6.2963020147
s   1 1.0 
       12.2608607300         4.6698272139
s   1 1.0 
        4.9987076000         2.3826123703
s   1 1.0 
        1.1703108200         0.8019291632
s   1 1.0 
        0.4647474100        -0.4011648063
s   1 1.0 
        0.1850453600         0.2010799377
p   4 1.0 
       63.2749548000         3.0898340730
       14.6270493800         3.3923831935
        4.4501223500         2.9482801524
        1.5275799600         1.7113350234
p   1 1.0 
        0.5293511800         0.6436057935
p   1 1.0 
        0.1747842100         0.1610897223
d   1 1.0 
        2.3140000000        12.3767310624
d   1 1.0 
        0.6450000000         1.3234257612
f   1 1.0 
        1.4280000000        12.7097950062

[5D]
[7F]
[9G]
[MO]
 Sym=     1a
 Ene= -1.98406484965086E+03
 Spin= Alpha
 Occup= 1.000000
  1       0.090385170375
  2       0.100327485011
  3       0.175631055961
  4       0.300262562958
  5       0.338091953032
  6       0.169990489248
  7       0.009707714659
  8       0.003290217896
  9      -0.002396183732
 10       0.001584101931
 11      -0.001066275643
 12       0.000716682588
 13      -0.000477197455
 14       0.000319373379
 15      -0.000224590133
 16       0.000184178635
 17      -0.000050463090
 18       0.000012237388
 19      -0.000000387542
 20      -0.000000525480
 21      -0.000000347668
 22       0.000000585135
 23       0.000000797978
 24       0.000000526941
 25      -0.000000381983
 26      -0.000000520770
 27      -0.000000343925
 28       0.000000419117
 29       0.000000572236
 30       0.000000377730
 31      -0.000000555250
 32      -0.000000758828
 33      -0.000000500740
 34       0.000000818605
 35       0.000001118896
 36       0.000000738309
 37      -0.000001330657
 38      -0.000001816181
 39      -0.000001198983
 40       0.000002018200
 41       0.000002737664
 42       0.000001811004
 43      -0.000002467980
 44      -0.000003298153
 45      -0.000002192657
 46       0.000018911776
 47       0.000025747462
 48       0.000017011737
 49      -0.000002699155
 50      -0.000003677101
 51      -0.000002429007
 52       0.000000490389
 53       0.000000668934
 54       0.000000441693
 55      -0.000000137659
 56      -0.000000022826
 57      -0.000000016699
 58       0.000000086684
 59      -0.000000260765
 60       0.000000231488
 61      -0.000000016993
 62      -0.000000045360
 63      -0.000000107884
 64       0.000000320669
 65      -0.000000413103
 66       0.000000089460
 67       0.000000159346
 68       0.000000152104
 69      -0.000000446452
 70       0.000000776174
 71      -0.000000204645
 72      -0.000000347582
 73      -0.000000261186
 74       0.000000761233
 75      -0.000001405960
 76       0.000000388103
 77       0.000000650096
 78       0.000000464818
 79      -0.000001343505
 80       0.000001914289
 81      -0.000000494691
 82      -0.000000828790
 83      -0.000000672111
 84       0.000001908398
 85      -0.000013404241
 86       0.000003928107
 87       0.000006512839
 88       0.000004258033
 89      -0.000012315854
 90       0.000000856016
 91      -0.000000354703
 92      -0.000000553038
 93      -0.000000201686
 94       0.000000566022
 95      -0.000000060915
 96       0.000000041199
 97       0.000000060551
 98       0.000000003384
 99      -0.000000006317
100      -0.000000129035
101      -0.000000050432
102      -0.000000056506
103       0.000000021352
104      -0.000000088321
105      -0.000000259968
106       0.000000082878
107       0.000000607334
108       0.000000245619
109       0.000000271394
110      -0.000000112551
111       0.000000442516
112       0.000001264585
113      -0.000000402467
114      -0.000004034433
115      -0.000001570535
116      -0.000001755882
117       0.000000657950
118      -0.000002721913
119      -0.000008072055
120       0.000002573994
121       0.000000126992
122      -0.000000560561
123       0.000000989267
124      -0.000003819829
125      -0.000014397636
126      -0.000048006226
127       0.000000171822
128      -0.000000355138
129      -0.000000105968
130       0.000000899603
131      -0.000002326881
132      -0.000000761574
133      -0.000004938510
134       0.000014692385
135       0.000005029327
136      -0.000000246736
137      -0.000000107354
138       0.000000274245
139      -0.000000344469
140      -0.000000358564
141       0.000000388568
142       0.000000153443
143      -0.000000403159
144       0.000000484431
145       0.000000562970
146      -0.000000527539
147       0.000000239994
148      -0.000000509912
149      -0.000000524923
150      -0.000000549462
151      -0.000000978256
152       0.000000342600
153       0.000000127171
154      -0.000000561735
155       0.000000992745
156      -0.000003839467
157      -0.000014414359
158      -0.000047966942
159      -0.000000387427
160       0.000000051821
161      -0.000000092301
162      -0.000002534864
163       0.000000133457
164      -0.000000694842
165       0.000015636673
166      -0.000000132744
167       0.000004591623
168      -0.000000260189
169       0.000000265957
170      -0.000000013759
171       0.000000497434
172      -0.000000085283
173       0.000000399787
174      -0.000000379270
175       0.000000013419
176      -0.000000719527
177       0.000000163770
178      -0.000000480184
179      -0.000000625671
180       0.000000073136
181       0.000000679818
182      -0.000000116203
183      -0.000001014627
184       0.000000293365
 Sym=     1a
 Ene= -3.35819690449243E+02
 Spin= Alpha
 Occup= 1.000000
  1       0.034046371137
  2       0.041709508581
  3       0.073948306937
  4       0.149179148139
  5       0.204263635322
  6       0.077407076717
  7      -0.476714269472
  8      -0.596790969066
  9      -0.092791532911
 10      -0.004361840613
 11       0.003861541317
 12      -0.002738939890
 13       0.001963930505
 14      -0.001363055336
 15       0.000968987357
 16      -0.000798553922
 17       0.000218594793
 18      -0.000053065228
 19      -0.000015073340
 20      -0.000020701414
 21      -0.000013637973
 22      -0.000020763289
 23      -0.000028523587
 24      -0.000018789489
 25      -0.000015333195
 26      -0.000021072124
 27      -0.000013879193
 28      -0.000000111679
 29      -0.000000171485
 30      -0.000000108934
 31       0.000000227530
 32       0.000000312621
 33       0.000000205929
 34      -0.000002713794
 35      -0.000003709192
 36      -0.000002447549
 37       0.000005162295
 38       0.000007044132
 39       0.000004650683
 40      -0.000008464697
 41      -0.000011477061
 42      -0.000007593382
 43       0.000011356460
 44       0.000015193845
 45       0.000010097217
 46      -0.000082385441
 47      -0.000112163967
 48      -0.000074108380
 49       0.000011743289
 50       0.000015998060
 51       0.000010567944
 52      -0.000002135651
 53      -0.000002913163
 54      -0.000001923552
 55       0.000020475751
 56       0.000002678437
 57       0.000001534022
 58      -0.000012404146
 59       0.000037262464
 60       0.000000658665
 61       0.000001113096
 62       0.000001411119
 63      -0.000001101495
 64       0.000003383522
 65       0.000001677679
 66      -0.000000831329
 67      -0.000001267554
 68      -0.000000297825
 69       0.000000817508
 70      -0.000003285164
 71       0.000001145773
 72       0.000001841521
 73       0.000000914745
 74      -0.000002627321
 75       0.000006318783
 76      -0.000001838240
 77      -0.000003046275
 78      -0.000002024838
 79       0.000005838173
 80      -0.000009026267
 81       0.000002406911
 82       0.000004012565
 83       0.000003109846
 84      -0.000008836469
 85       0.000058518478
 86      -0.000017172156
 87      -0.000028464021
 88      -0.000018572960
 89       0.000053717169
 90      -0.000003730128
 91       0.000001566386
 92       0.000002437429
 93       0.000000864628
 94      -0.000002422305
 95       0.000000270174
 96      -0.000000187884
 97      -0.000000275390
 98      -0.000000011491
 99       0.000000017053
100       0.000000729755
101       0.000000267334
102       0.000000298929
103      -0.000000096010
104       0.000000415232
105       0.000001348894
106      -0.000000429143
107      -0.000003101285
108      -0.000001235744
109      -0.000001368061
110       0.000000548417
111      -0.000002183109
112      -0.000006345022
113       0.000002019562
114       0.000017711899
115       0.000006892878
116       0.000007706493
117      -0.000002885668
118       0.000011940650
119       0.000035424668
120      -0.000011296036
121      -0.000000479577
122       0.000002251604
123      -0.000004204289
124       0.000017042738
125       0.000063303758
126       0.000208797250
127      -0.000000706235
128       0.000001372524
129       0.000000396996
130      -0.000004168193
131       0.000010822257
132       0.000003546769
133       0.000021364582
134      -0.000063773466
135      -0.000021851435
136       0.000001060187
137       0.000000461354
138      -0.000001168563
139       0.000001466551
140       0.000001547044
141      -0.000001488650
142      -0.000000568941
143       0.000001492063
144      -0.000001761019
145      -0.000002166013
146       0.000002209191
147      -0.000001017889
148       0.000002145454
149       0.000002192516
150       0.000002302803
151       0.000004107436
152      -0.000001410292
153      -0.000000480451
154       0.000002257378
155      -0.000004220595
156       0.000017128712
157       0.000063374116
158       0.000208626248
159       0.000001506566
160      -0.000000239637
161       0.000000342067
162       0.000011775633
163      -0.000000604927
164       0.000003234522
165      -0.000067849960
166       0.000000509063
167      -0.000019953374
168       0.000001117118
169      -0.000001132860
170       0.000000061757
171      -0.000002128994
172       0.000000379435
173      -0.000001523958
174       0.000001393337
175      -0.000000046567
176       0.000002675658
177      -0.000000688525
178       0.000002008742
179       0.000002632765
180      -0.000000315458
181      -0.000002841622
182       0.000000489486
183       0.000004242197
184      -0.000001254366
 Sym=     1a
 Ene= -2.98650245775305E+02
 Spin= Alpha
 Occup= 1.000000
  1       0.000000010566
  2       0.000000012896
  3       0.000000023298
  4       0.000000045718
  5       0.000000066198
  6       0.000000017222
  7      -0.000000146189
  8      -0.000000198544
  9       0.000000010077
 10      -0.000000058349
 11       0.000000098760
 12      -0.000000112102
 13      -0.000000031096
 14       0.000000702107
 15      -0.000001810658
 16       0.000002620012
 17      -0.000000199536
 18       0.000000019213
 19      -0.289824293566
 20       0.208706308835
 21       0.006097605417
 22      -0.389116383915
 23       0.280207854372
 24       0.008186607862
 25      -0.245791974769
 26       0.176998066536
 27       0.005171216559
 28      -0.012264994620
 29       0.008832158982
 30       0.000258030719
 31      -0.004563313521
 32       0.003286147956
 33       0.000096028569
 34       0.003148342430
 35      -0.002267241068
 36      -0.000066273998
 37      -0.001917281449
 38       0.001380764130
 39       0.000040386471
 40       0.001199899732
 41      -0.000864056324
 42      -0.000025245481
 43      -0.000734472225
 44       0.000528527023
 45       0.000015289999
 46       0.000323316484
 47      -0.000231548887
 48      -0.000006236075
 49      -0.000139781426
 50       0.000100444623
 51       0.000002844994
 52       0.000045086211
 53      -0.000032418107
 54      -0.000000926480
 55       0.000000130032
 56      -0.000004046885
 57       0.000003115709
 58      -0.000009108017
 59      -0.000002991221
 60      -0.000000006479
 61       0.000000279990
 62      -0.000000213963
 63       0.000000626334
 64       0.000000211860
 65      -0.000000124377
 66       0.000003290153
 67      -0.000002539137
 68       0.000007425031
 69       0.000002398588
 70       0.000000318431
 71      -0.000008441938
 72       0.000006511764
 73      -0.000019046346
 74      -0.000006157561
 75      -0.000000667415
 76       0.000016797118
 77      -0.000012929237
 78       0.000037881085
 79       0.000012214948
 80       0.000001006303
 81      -0.000021571071
 82       0.000016491952
 83      -0.000048589340
 84      -0.000015518378
 85       0.000000167348
 86      -0.000016196270
 87       0.000012808894
 88      -0.000036690139
 89      -0.000012324797
 90      -0.000000362406
 91       0.000010675729
 92      -0.000008265158
 93       0.000024102069
 94       0.000007832039
 95       0.000000118510
 96      -0.000003376357
 97       0.000002610591
 98      -0.000007620468
 99      -0.000002472916
100       0.000000012623
101      -0.000000313697
102       0.000000096116
103       0.000003675091
104       0.000001149778
105      -0.000001219277
106      -0.000003631448
107      -0.000000577653
108       0.000013156687
109      -0.000008810188
110      -0.000016948244
111      -0.000006061874
112       0.000000344104
113      -0.000000804525
114      -0.000000071728
115      -0.000001440499
116       0.000001171451
117      -0.000006825638
118      -0.000002104471
119       0.000002889729
120       0.000009808224
121       0.000001120122
122      -0.000005674265
123       0.000010729195
124      -0.000006487146
125       0.000045484034
126      -0.000014754753
127      -0.000002996037
128       0.000006366124
129       0.000001924441
130      -0.000012836044
131       0.000041755672
132       0.000014650479
133      -0.000018080352
134       0.000011848539
135      -0.000000137508
136       0.000004655841
137       0.000001899534
138      -0.000005435638
139       0.000006716254
140       0.000006438034
141      -0.000005891347
142      -0.000002171413
143       0.000003935759
144      -0.000004139923
145      -0.000009724040
146       0.000010375082
147      -0.000003818135
148       0.000009223983
149       0.000010350507
150       0.000010245170
151       0.000018213222
152      -0.000007893949
153      -0.000001102333
154       0.000005579740
155      -0.000010525923
156       0.000005750483
157      -0.000046733551
158       0.000012033389
159      -0.000006884029
160       0.000000861440
161      -0.000001666409
162      -0.000044630121
163      -0.000000733084
164      -0.000013596670
165      -0.000016157985
166       0.000013376907
167       0.000001110176
168      -0.000004905438
169       0.000005212536
170      -0.000000068708
171       0.000009343064
172      -0.000001232199
173       0.000005931490
174      -0.000003547056
175       0.000000630428
176      -0.000008863310
177       0.000005371339
178      -0.000009534423
179      -0.000011250690
180       0.000000844674
181       0.000013106314
182      -0.000001944628
183      -0.000019752978
184       0.000004266645
 Sym=     1a
 Ene= -2.98639242358789E+02
 Spin= Alpha
 Occup= 1.000000
  1       0.000000000823
  2       0.000000000993
  3       0.000000001845
  4       0.000000003427
  5       0.000000005448
  6       0.000000000583
  7      -0.000000009219
  8      -0.000000016156
  9      -0.000000000068
 10      -0.000000010293
 11       0.000000019592
 12      -0.000000028870
 13       0.000000040875
 14      -0.000000045982
 15       0.000000020219
 16       0.000000022173
 17      -0.000000013318
 18       0.000000003457
 19      -0.093704435880
 20      -0.139336138396
 21       0.315289215016
 22      -0.125808046944
 23      -0.187073400287
 24       0.423308886792
 25      -0.079458946092
 26      -0.118153453387
 27       0.267357127240
 28      -0.003961642426
 29      -0.005890863517
 30       0.013329813475
 31      -0.001469997545
 32      -0.002185848019
 33       0.004946137389
 34       0.001007760254
 35       0.001498511994
 36      -0.003390840998
 37      -0.000602319043
 38      -0.000895629690
 39       0.002026650628
 40       0.000360945388
 41       0.000536711378
 42      -0.001214503070
 43      -0.000212101103
 44      -0.000315384279
 45       0.000713680517
 46       0.000118241486
 47       0.000175825739
 48      -0.000397840904
 49      -0.000053895359
 50      -0.000080142918
 51       0.000181336655
 52       0.000017169049
 53       0.000025530491
 54      -0.000057767105
 55       0.000007476339
 56       0.000003488541
 57       0.000004646150
 58       0.000001478331
 59      -0.000004056752
 60      -0.000002054533
 61      -0.000000961401
 62      -0.000001274603
 63      -0.000000404558
 64       0.000001115368
 65      -0.000000814031
 66      -0.000000385767
 67      -0.000000503003
 68      -0.000000157886
 69       0.000000444287
 70       0.000001668424
 71       0.000000787717
 72       0.000001033631
 73       0.000000325480
 74      -0.000000910140
 75      -0.000004334962
 76      -0.000002041122
 77      -0.000002687064
 78      -0.000000848157
 79       0.000002361503
 80       0.000007798485
 81       0.000003662479
 82       0.000004835959
 83       0.000001529852
 84      -0.000004242439
 85      -0.000005564816
 86      -0.000002599652
 87      -0.000003448112
 88      -0.000001095720
 89       0.000003012522
 90      -0.000003518426
 91      -0.000001655859
 92      -0.000002180087
 93      -0.000000688165
 94       0.000001914951
 95       0.000001059433
 96       0.000000498499
 97       0.000000656611
 98       0.000000207318
 99      -0.000000576678
100      -0.000001382553
101      -0.000000788016
102      -0.000000900472
103       0.000000653089
104      -0.000001945286
105       0.000001604916
106      -0.000000454194
107      -0.000005055809
108       0.000003419150
109       0.000005379072
110       0.000001981651
111      -0.000005236950
112       0.000002409993
113      -0.000000631109
114       0.000004566885
115      -0.000002849539
116      -0.000004534928
117      -0.000001804881
118       0.000004803222
119      -0.000002315129
120       0.000000613599
121       0.000000000350
122      -0.000000001767
123       0.000000003355
124      -0.000000003602
125       0.000000007785
126      -0.000000004092
127      -0.000000686552
128      -0.000001018736
129       0.000002308536
130       0.000003588210
131       0.000005354155
132      -0.000012085194
133      -0.000004811262
134      -0.000007155955
135       0.000016192132
136      -0.000000573235
137       0.000000547140
138      -0.000000905742
139      -0.000000596284
140       0.000000115951
141       0.000005951944
142      -0.000005466738
143       0.000009242035
144       0.000006076912
145      -0.000001234295
146       0.000000631854
147       0.000000372698
148      -0.000001204831
149       0.000000513568
150       0.000000963336
151      -0.000000144394
152       0.000000806931
153       0.000000000268
154      -0.000000001351
155       0.000000002561
156      -0.000000002947
157       0.000000005039
158      -0.000000002444
159      -0.000000685813
160      -0.000001021523
161       0.000002311319
162       0.000003591850
163       0.000005327269
164      -0.000012052671
165      -0.000004801349
166      -0.000007137166
167       0.000016152648
168      -0.000000520085
169      -0.000001070210
170       0.000000232177
171       0.000000386695
172       0.000000483051
173       0.000005363168
174       0.000010793949
175      -0.000002243276
176      -0.000003867875
177      -0.000004917846
178       0.000000729758
179      -0.000001184927
180      -0.000000050243
181      -0.000001073747
182       0.000000475245
183      -0.000000569196
184      -0.000000638397
 Sym=     1a
 Ene= -2.98637968453899E+02
 Spin= Alpha
 Occup= 1.000000
  1       0.000002847556
  2       0.000003435151
  3       0.000006373124
  4       0.000011883840
  5       0.000018762479
  6       0.000002198270
  7      -0.000032257487
  8      -0.000055841981
  9      -0.000000394943
 10      -0.000033507522
 11       0.000064107687
 12      -0.000094301568
 13       0.000133362950
 14      -0.000149721167
 15       0.000065426837
 16       0.000072307627
 17      -0.000043473399
 18       0.000011297520
 19       0.186596688593
 20       0.254218719367
 21       0.167804002332
 22       0.250526580028
 23       0.341316590703
 24       0.225295330161
 25       0.158227804219
 26       0.215569064409
 27       0.142292238885
 28       0.007881708934
 29       0.010737973614
 30       0.007087897954
 31       0.002934710109
 32       0.003998311215
 33       0.002639183486
 34      -0.002017203617
 35      -0.002748354937
 36      -0.001814106615
 37       0.001216182772
 38       0.001657090797
 39       0.001093782601
 40      -0.000743503019
 41      -0.001012947542
 42      -0.000668639694
 43       0.000443968009
 44       0.000604274321
 45       0.000399009736
 46      -0.000225351290
 47      -0.000304544173
 48      -0.000201554777
 49       0.000100340831
 50       0.000136288636
 51       0.000090046872
 52      -0.000032017495
 53      -0.000043528048
 54      -0.000028750578
 55      -0.000002749234
 56       0.000005422585
 57       0.000007475324
 58      -0.000002312580
 59       0.000007311915
 60       0.000000356589
 61      -0.000001253211
 62      -0.000001697656
 63       0.000000675056
 64      -0.000002118215
 65       0.000002736507
 66      -0.000001141286
 67      -0.000001782185
 68      -0.000000633241
 69       0.000001790207
 70      -0.000006714303
 71       0.000003008027
 72       0.000004648456
 73       0.000001411404
 74      -0.000003950684
 75       0.000012887447
 76      -0.000006464634
 77      -0.000009798407
 78      -0.000002291645
 79       0.000006137715
 80      -0.000014556130
 81       0.000009023094
 82       0.000013169249
 83       0.000001660463
 84      -0.000003383606
 85      -0.000014521374
 86      -0.000000155377
 87       0.000001876995
 88       0.000006701043
 89      -0.000022301381
 90       0.000007318657
 91      -0.000004604035
 92      -0.000006881738
 93      -0.000000551059
 94       0.000001449363
 95      -0.000002414565
 96       0.000001445029
 97       0.000002165013
 98       0.000000242671
 99      -0.000000640203
100       0.000001306247
101       0.000000084624
102       0.000000078683
103       0.000000371065
104      -0.000001118045
105      -0.000000265386
106       0.000000108647
107      -0.000011386249
108      -0.000003364023
109      -0.000003657731
110       0.000000395752
111      -0.000002443887
112      -0.000015289167
113       0.000004793429
114       0.000000679637
115      -0.000000683260
116      -0.000000959834
117       0.000001152533
118      -0.000004502658
119      -0.000005664844
120       0.000001927305
121       0.000001019259
122      -0.000005148570
123       0.000009779877
124      -0.000011100749
125       0.000020263623
126      -0.000011759940
127      -0.000000416081
128       0.000005574847
129       0.000002340961
130      -0.000019623202
131       0.000022755890
132       0.000004233089
133       0.000013200289
134       0.000012139566
135       0.000009288431
136       0.000003077547
137       0.000001435837
138      -0.000003919161
139       0.000005102638
140       0.000004278422
141      -0.000002178535
142      -0.000000678074
143       0.000008196372
144      -0.000010765710
145       0.000000863746
146       0.000007644251
147      -0.000002325721
148       0.000006311591
149       0.000007614392
150       0.000007089818
151       0.000012685736
152      -0.000006348218
153       0.000001005042
154      -0.000005073612
155       0.000009621048
156      -0.000010554900
157       0.000021203654
158      -0.000009349338
159       0.000005370377
160       0.000001339294
161       0.000002188570
162       0.000028261773
163      -0.000011492418
164       0.000003326978
165       0.000006846844
166       0.000016275131
167       0.000009227948
168       0.000003253393
169      -0.000003809650
170       0.000000131555
171      -0.000006725298
172       0.000000419332
173      -0.000002355876
174       0.000007661057
175       0.000001680413
176       0.000008088796
177       0.000007118373
178       0.000007095500
179       0.000007628475
180      -0.000000290447
181      -0.000009444197
182       0.000001103111
183       0.000014259232
184      -0.000002194974
 Sym=     1a
 Ene= -7.74490393391623E+01
 Spin= Alpha
 Occup= 1.000000
  1       0.015953978907
  2       0.019808634826
  3       0.035438053423
  4       0.072730791418
  5       0.105114984894
  6       0.035240691732
  7      -0.366623803949
  8      -0.693442823718
  9       0.440399325706
 10       0.907717305934
 11       0.041090802347
 12       0.036553637931
 13      -0.024916674709
 14       0.017299174069
 15      -0.012530212144
 16       0.010353361491
 17      -0.002838097244
 18       0.000690378116
 19      -0.000061052917
 20      -0.000083949117
 21      -0.000055280790
 22      -0.000093576204
 23      -0.000128650827
 24      -0.000084721275
 25      -0.000006867828
 26      -0.000009505295
 27      -0.000006245401
 28       0.000243152429
 29       0.000334207960
 30       0.000220107328
 31       0.000109527186
 32       0.000150997539
 33       0.000099342442
 34       0.000027246075
 35       0.000037132031
 36       0.000024526736
 37      -0.000058897215
 38      -0.000080222548
 39      -0.000052997116
 40       0.000112216049
 41       0.000152056813
 42       0.000100623964
 43      -0.000151411113
 44      -0.000202621137
 45      -0.000134643598
 46       0.001071163937
 47       0.001458288536
 48       0.000963524115
 49      -0.000153057253
 50      -0.000208499113
 51      -0.000137732552
 52       0.000027930767
 53       0.000038095044
 54       0.000025154991