[Molden Format]
[Title]
 Molden file created by orca_2mkl for BaseName=/data01/mitrofjr/herdbv2/1/Eu_OH_3

[Atoms] AU
Eu   1  63         -0.2231709872         0.4095849114        -0.4948965978 
O    2   8         -1.9349170447         3.8964395436        -0.2400783670 
O    3   8         -1.8663162066        -2.5225103785        -2.4471140852 
O    4   8          3.0676207791        -0.2519061628         1.4519465086 
H    5   1          4.5799421479        -0.6674720575         2.3560255061 
H    6   1         -2.6463686985         5.5407223781         0.0171511544 
H    7   1         -2.7368393372        -3.8295961508        -3.3464536496 
[GTO]
  1 0
s   6 1.0 
  1097819.8713740001      2094.1051919023
   487919.9428330000      -553.4936466776
   216853.3079260000      1227.4145046986
    96379.2479670000       287.0671366721
    42835.2213190000       753.5424106054
    19037.8761420000       575.9766746901
s   1 1.0 
     8461.2782850000       628.7631433054
s   1 1.0 
     3760.5681270000       342.2553045042
s   1 1.0 
     1671.3636120000       186.3001906214
s   1 1.0 
      742.8282720000       101.4089791124
s   1 1.0 
      330.1458990000        55.2000565222
s   1 1.0 
      146.7315110000        30.0471049961
s   1 1.0 
       65.2140050000        16.3555723516
s   1 1.0 
       28.9840020000         8.9028458850
s   1 1.0 
       12.8817790000         4.8460955778
s   1 1.0 
        5.7252350000         2.6378802750
s   1 1.0 
        2.5445490000         1.4358801973
s   1 1.0 
        1.1309110000         0.7815943539
s   1 1.0 
        0.5026270000         0.4254460079
s   1 1.0 
        0.2233900000         0.2315836467
s   1 1.0 
        0.0992840000         0.1260577472
s   1 1.0 
        0.0441260000         0.0686168872
s   1 1.0 
        0.0196120000         0.0373509374
p   5 1.0 
    14914.5995620000      2930.9495136540
     5965.8398250000      1201.0763570229
     2386.3359300000      1902.9439950739
      954.5343720000      1878.8141301970
      381.8137490000      1791.4157676492
p   1 1.0 
      152.7255000000       765.2961568742
p   1 1.0 
       61.0902000000       243.4470529600
p   1 1.0 
       24.4360800000        77.4425260895
p   1 1.0 
        9.7744320000        24.6351096643
p   1 1.0 
        3.9097730000         7.8366331475
p   1 1.0 
        1.5639090000         2.4928975832
p   1 1.0 
        0.6255640000         0.7930120249
p   1 1.0 
        0.2502250000         0.2522629443
p   1 1.0 
        0.1000900000         0.0802469342
p   1 1.0 
        0.0400360000         0.0255272151
p   1 1.0 
        0.0160140000         0.0081201653
d   4 1.0 
     1048.0606430000      4504.7143273632
      381.1129610000      4335.1022993005
      138.5865310000      4042.3256851319
       50.3951020000      2169.6801268913
d   1 1.0 
       18.3254920000       462.7191349861
d   1 1.0 
        6.6638150000        78.7925605433
d   1 1.0 
        2.4232060000        13.4169305260
d   1 1.0 
        0.8811660000         2.2846575564
d   1 1.0 
        0.3204240000         0.3890352011
d   1 1.0 
        0.1165180000         0.0662457271
d   1 1.0 
        0.0423700000         0.0112803453
d   1 1.0 
        0.0154070000         0.0019207760
f   4 1.0 
       29.2179750000      1158.8421481478
        9.7393250000       321.6749227643
        3.2464420000        42.1545037835
        1.0821470000         2.5534487342
f   1 1.0 
        0.3607160000         0.5749396280
f   1 1.0 
        0.1202390000         0.0485402635

  2 0
s   6 1.0 
    27032.3826310000         1.4645050749
     4052.3871392000         1.8244031008
      922.3272271000         2.8547160967
      261.2407098900         4.3654874290
       85.3546413500         5.8940772662
       31.0350352400         6.2963020147
s   1 1.0 
       12.2608607300         4.6698272139
s   1 1.0 
        4.9987076000         2.3826123703
s   1 1.0 
        1.1703108200         0.8019291632
s   1 1.0 
        0.4647474100        -0.4011648063
s   1 1.0 
        0.1850453600         0.2010799377
p   4 1.0 
       63.2749548000         3.0898340730
       14.6270493800         3.3923831935
        4.4501223500         2.9482801524
        1.5275799600         1.7113350234
p   1 1.0 
        0.5293511800         0.6436057935
p   1 1.0 
        0.1747842100         0.1610897223
d   1 1.0 
        2.3140000000        12.3767310624
d   1 1.0 
        0.6450000000         1.3234257612
f   1 1.0 
        1.4280000000        12.7097950062

  3 0
s   6 1.0 
    27032.3826310000         1.4645050749
     4052.3871392000         1.8244031008
      922.3272271000         2.8547160967
      261.2407098900         4.3654874290
       85.3546413500         5.8940772662
       31.0350352400         6.2963020147
s   1 1.0 
       12.2608607300         4.6698272139
s   1 1.0 
        4.9987076000         2.3826123703
s   1 1.0 
        1.1703108200         0.8019291632
s   1 1.0 
        0.4647474100        -0.4011648063
s   1 1.0 
        0.1850453600         0.2010799377
p   4 1.0 
       63.2749548000         3.0898340730
       14.6270493800         3.3923831935
        4.4501223500         2.9482801524
        1.5275799600         1.7113350234
p   1 1.0 
        0.5293511800         0.6436057935
p   1 1.0 
        0.1747842100         0.1610897223
d   1 1.0 
        2.3140000000        12.3767310624
d   1 1.0 
        0.6450000000         1.3234257612
f   1 1.0 
        1.4280000000        12.7097950062

  4 0
s   6 1.0 
    27032.3826310000         1.4645050749
     4052.3871392000         1.8244031008
      922.3272271000         2.8547160967
      261.2407098900         4.3654874290
       85.3546413500         5.8940772662
       31.0350352400         6.2963020147
s   1 1.0 
       12.2608607300         4.6698272139
s   1 1.0 
        4.9987076000         2.3826123703
s   1 1.0 
        1.1703108200         0.8019291632
s   1 1.0 
        0.4647474100        -0.4011648063
s   1 1.0 
        0.1850453600         0.2010799377
p   4 1.0 
       63.2749548000         3.0898340730
       14.6270493800         3.3923831935
        4.4501223500         2.9482801524
        1.5275799600         1.7113350234
p   1 1.0 
        0.5293511800         0.6436057935
p   1 1.0 
        0.1747842100         0.1610897223
d   1 1.0 
        2.3140000000        12.3767310624
d   1 1.0 
        0.6450000000         1.3234257612
f   1 1.0 
        1.4280000000        12.7097950062

  5 0
s   3 1.0 
       34.0613410000         0.2556300129
        5.1235746000         0.4613599287
        1.1646626000         0.6811215012
s   1 1.0 
        0.3272304100         0.3083545312
s   1 1.0 
        0.1030724100         0.1296483265
p   1 1.0 
        0.8000000000         1.0784563492

  6 0
s   3 1.0 
       34.0613410000         0.2556300129
        5.1235746000         0.4613599287
        1.1646626000         0.6811215012
s   1 1.0 
        0.3272304100         0.3083545312
s   1 1.0 
        0.1030724100         0.1296483265
p   1 1.0 
        0.8000000000         1.0784563492

  7 0
s   3 1.0 
       34.0613410000         0.2556300129
        5.1235746000         0.4613599287
        1.1646626000         0.6811215012
s   1 1.0 
        0.3272304100         0.3083545312
s   1 1.0 
        0.1030724100         0.1296483265
p   1 1.0 
        0.8000000000         1.0784563492

[5D]
[7F]
[9G]
[MO]
 Sym=     1a
 Ene= -1.78965113270769E+03
 Spin= Alpha
 Occup= 1.000000
  1      -0.085359190755
  2      -0.096810778509
  3      -0.173193609232
  4      -0.299636830194
  5      -0.342336969734
  6      -0.173494084638
  7      -0.010395145311
  8      -0.003202253548
  9       0.002331963870
 10      -0.001539351117
 11       0.001040175704
 12      -0.000703358428
 13       0.000475147161
 14      -0.000329987979
 15       0.000241206453
 16      -0.000167982668
 17       0.000042529164
 18      -0.000011001894
 19      -0.000000007357
 20      -0.000000024690
 21       0.000000054521
 22       0.000000009916
 23       0.000000021812
 24      -0.000000048350
 25      -0.000000010031
 26      -0.000000017187
 27       0.000000039781
 28       0.000000015038
 29       0.000000018739
 30      -0.000000045387
 31      -0.000000024565
 32      -0.000000025552
 33       0.000000063974
 34       0.000000041694
 35       0.000000040194
 36      -0.000000102322
 37      -0.000000074703
 38      -0.000000072406
 39       0.000000183481
 40       0.000000133535
 41       0.000000137500
 42      -0.000000339965
 43      -0.000000241796
 44      -0.000000210318
 45       0.000000552163
 46       0.000000525581
 47       0.000000397727
 48      -0.000001220948
 49      -0.000000055761
 50      -0.000000024685
 51       0.000000127222
 52       0.000000007613
 53       0.000000008947
 54      -0.000000029535
 55       0.000000168957
 56      -0.000000246099
 57      -0.000000139392
 58       0.000000056872
 59       0.000000086955
 60      -0.000000274513
 61       0.000000396882
 62       0.000000226926
 63      -0.000000095068
 64      -0.000000141104
 65       0.000000469661
 66      -0.000000675078
 67      -0.000000389049
 68       0.000000166578
 69       0.000000241086
 70      -0.000000897295
 71       0.000001288290
 72       0.000000743343
 73      -0.000000319504
 74      -0.000000460613
 75       0.000001828629
 76      -0.000002625043
 77      -0.000001515263
 78       0.000000652146
 79       0.000000938358
 80      -0.000003288409
 81       0.000004725723
 82       0.000002725820
 83      -0.000001168650
 84      -0.000001685821
 85       0.000009194130
 86      -0.000013146123
 87      -0.000007595133
 88       0.000003302736
 89       0.000004747085
 90      -0.000000285457
 91       0.000000347741
 92       0.000000235957
 93      -0.000000159795
 94      -0.000000157087
 95       0.000000032198
 96      -0.000000033121
 97      -0.000000028074
 98       0.000000024894
 99       0.000000017791
100       0.000000027689
101      -0.000000089523
102       0.000000190051
103      -0.000000264613
104       0.000000280735
105       0.000000469826
106      -0.000000122962
107      -0.000000179608
108       0.000000569400
109      -0.000001221162
110       0.000001701639
111      -0.000001806607
112      -0.000003016140
113       0.000000796876
114       0.000000592158
115      -0.000001843536
116       0.000004163152
117      -0.000005641870
118       0.000006067378
119       0.000010120277
120      -0.000002758154
121      -0.000000186638
122       0.000000864142
123      -0.000001636189
124       0.000005001753
125       0.000010319674
126       0.000028164410
127       0.000000351140
128      -0.000000735806
129      -0.000000065166
130      -0.000002190313
131       0.000004617286
132       0.000000443464
133       0.000003748161
134      -0.000007400724
135      -0.000000504811
136      -0.000000136684
137       0.000000118746
138       0.000000068907
139      -0.000000076835
140      -0.000000117711
141       0.000000964933
142      -0.000000298761
143      -0.000000228588
144       0.000000789687
145       0.000001156369
146      -0.000000049561
147       0.000000065402
148      -0.000000135195
149      -0.000000044271
150      -0.000000050780
151      -0.000000200284
152       0.000000069432
153      -0.000000183814
154       0.000000851277
155      -0.000001612674
156       0.000004942704
157       0.000010216338
158       0.000028103890
159       0.000000343822
160       0.000000616633
161       0.000000405433
162      -0.000002251815
163      -0.000003900800
164      -0.000002592603
165       0.000003138903
166       0.000006414084
167       0.000003941372
168      -0.000000094562
169       0.000000143624
170       0.000000129415
171      -0.000000068923
172       0.000000001858
173       0.000000393680
174      -0.000000783689
175      -0.000001129609
176       0.000000636303
177      -0.000000602578
178       0.000000114074
179      -0.000000012703
180      -0.000000028587
181       0.000000083019
182      -0.000000178344
183      -0.000000135509
184       0.000000017913
185      -0.000000181035
186       0.000000838626
187      -0.000001589693
188       0.000004892394
189       0.000010163968
190       0.000028079259
191      -0.000000681396
192       0.000000146499
193      -0.000000404000
194       0.000004431331
195      -0.000000980186
196       0.000002632709
197      -0.000006786719
198       0.000001227539
199      -0.000004128606
200      -0.000000085661
201       0.000000170563
202       0.000000057424
203       0.000000021210
204      -0.000000051838
205       0.000000372045
206      -0.000001312006
207      -0.000000026106
208      -0.000000760698
209       0.000000369165
210      -0.000000111621
211       0.000000034140
212      -0.000000008296
213       0.000000157653
214      -0.000000097874
215      -0.000000098676
216       0.000000092146
217       0.000000331104
218      -0.000002942527
219       0.000000957609
220       0.000000974309
221      -0.000000169770
222       0.000000588025
223       0.000000356689
224      -0.000002672066
225       0.000000915295
226      -0.000000493130
227       0.000000944361
228       0.000000040689
229       0.000000346973
230      -0.000002837941
231       0.000000940542
232      -0.000000423946
233      -0.000000877535
234      -0.000000544630
 Sym=     1a
 Ene= -2.98679256840787E+02
 Spin= Alpha
 Occup= 1.000000
  1       0.031728399554
  2       0.039607830373
  3       0.071909052745
  4       0.146779532954
  5       0.205771878244
  6       0.087372896745
  7      -0.464201752784
  8      -0.606556857014
  9      -0.101191716186
 10      -0.004011929215
 11       0.003508869110
 12      -0.002519497615
 13       0.001859391031
 14      -0.001343802105
 15       0.000992107827
 16      -0.000694394386
 17       0.000175789810
 18      -0.000045533641
 19       0.000000094665
 20       0.000000007831
 21       0.000000015937
 22       0.000000141671
 23      -0.000000012836
 24       0.000000072639
 25       0.000000073116
 26      -0.000000057697
 27       0.000000169878
 28      -0.000000016014
 29      -0.000000052494
 30       0.000000102440
 31      -0.000000060903
 32      -0.000000044894
 33       0.000000130088
 34       0.000000153383
 35       0.000000141380
 36      -0.000000366879
 37      -0.000000295925
 38      -0.000000281383
 39       0.000000716522
 40       0.000000541040
 41       0.000000565298
 42      -0.000001390429
 43      -0.000000993257
 44      -0.000000893653
 45       0.000002318442
 46       0.000002181666
 47       0.000001650178
 48      -0.000005060679
 49      -0.000000230604
 50      -0.000000102262
 51       0.000000526907
 52       0.000000031195
 53       0.000000037138
 54      -0.000000122217
 55       0.000021155196
 56      -0.000030923201
 57      -0.000017450155
 58       0.000007019396
 59       0.000010884609
 60      -0.000000751339
 61       0.000001076501
 62       0.000000626864
 63      -0.000000274799
 64      -0.000000383488
 65       0.000001076714
 66      -0.000001548603
 67      -0.000000889132
 68       0.000000379304
 69       0.000000554506
 70      -0.000003423587
 71       0.000004915621
 72       0.000002835972
 73      -0.000001219723
 74      -0.000001757668
 75       0.000007635209
 76      -0.000010965118
 77      -0.000006325856
 78       0.000002719174
 79       0.000003918146
 80      -0.000013865879
 81       0.000019936235
 82       0.000011491836
 83      -0.000004919807
 84      -0.000007108465
 85       0.000038191416
 86      -0.000054610758
 87      -0.000031547740
 88       0.000013716372
 89       0.000019719284
 90      -0.000001182006
 91       0.000001437013
 92       0.000000977224
 93      -0.000000664693
 94      -0.000000650669
 95       0.000000132775
 96      -0.000000135583
 97      -0.000000115850
 98       0.000000103723
 99       0.000000073427
100       0.000000129624
101      -0.000000399608
102       0.000000847708
103      -0.000001181233
104       0.000001263496
105       0.000002099832
106      -0.000000559126
107      -0.000000777452
108       0.000002454984
109      -0.000005259790
110       0.000007336985
111      -0.000007787766
112      -0.000012997943
113       0.000003435296
114       0.000002466421
115      -0.000007686780
116       0.000017348632
117      -0.000023520038
118       0.000025281718
119       0.000042179398
120      -0.000011486182
121      -0.000000677288
122       0.000003368051
123      -0.000006681118
124       0.000020980551
125       0.000043071401
126       0.000116651308
127       0.000001504417
128      -0.000003147084
129      -0.000000275765
130      -0.000009060330
131       0.000019083233
132       0.000001819970
133       0.000015512844
134      -0.000030650601
135      -0.000002102480
136      -0.000000630748
137       0.000000477675
138       0.000000298211
139      -0.000000392026
140      -0.000000580074
141       0.000004227988
142      -0.000001201824
143      -0.000001010053
144       0.000003532085
145       0.000005107431
146      -0.000000209932
147       0.000000296652
148      -0.000000612162
149      -0.000000181634
150      -0.000000219318
151      -0.000000906682
152       0.000000299383
153      -0.000000667518
154       0.000003319496
155      -0.000006588849
156       0.000020742340
157       0.000042648418
158       0.000116401564
159       0.000001469377
160       0.000002640892
161       0.000001735346
162      -0.000009296306
163      -0.000016137243
164      -0.000010719473
165       0.000012995826
166       0.000026558393
167       0.000016314929
168      -0.000000405101
169       0.000000640271
170       0.000000624710
171      -0.000000332140
172       0.000000087936
173       0.000001688744
174      -0.000003422010
175      -0.000004990144
176       0.000002792562
177      -0.000002769587
178       0.000000511834
179      -0.000000057409
180      -0.000000132674
181       0.000000387545
182      -0.000000795578
183      -0.000000615162
184       0.000000068003
185      -0.000000657870
186       0.000003271826
187      -0.000006498778
188       0.000020540944
189       0.000042436632
190       0.000116295357
191      -0.000002919283
192       0.000000624803
193      -0.000001731085
194       0.000018331695
195      -0.000004043387
196       0.000010890138
197      -0.000028088180
198       0.000005088605
199      -0.000017088201
200      -0.000000368058
201       0.000000804955
202       0.000000212929
203       0.000000173309
204      -0.000000249126
205       0.000001597865
206      -0.000005788523
207      -0.000000027012
208      -0.000003438916
209       0.000001659932
210      -0.000000503138
211       0.000000155303
212      -0.000000039873
213       0.000000721683
214      -0.000000431462
215      -0.000000457761
216       0.000000406689
217       0.000001496376
218      -0.000011918224
219       0.000003929096
220       0.000003895690
221      -0.000000659534
222       0.000002351846
223       0.000001601674
224      -0.000010786429
225       0.000003754634
226      -0.000001978784
227       0.000003754821
228       0.000000138294
229       0.000001561539
230      -0.000011479308
231       0.000003859134
232      -0.000001667694
233      -0.000003516285
234      -0.000002171072
 Sym=     1a
 Ene= -2.66513954200683E+02
 Spin= Alpha
 Occup= 1.000000
  1       0.000000000762
  2       0.000000001174
  3       0.000000001224
  4       0.000000005973
  5       0.000000000091
  6       0.000000015244
  7      -0.000000052162
  8      -0.000000002026
  9       0.000000018659
 10       0.000000097392
 11      -0.000000196434
 12       0.000000296000
 13      -0.000000499073
 14       0.000000742900
 15       0.000002054338
 16      -0.000009870825
 17       0.000002203346
 18      -0.000000483010
 19      -0.015949213412
 20       0.335978341165
 21       0.107869856049
 22      -0.021653207710
 23       0.456135884532
 24       0.146447866438
 25      -0.013806058455
 26       0.290831887827
 27       0.093375058665
 28      -0.000738078962
 29       0.015547598780
 30       0.004991713628
 31      -0.000250531318
 32       0.005278351053
 33       0.001694731319
 34       0.000173778760
 35      -0.003662139710
 36      -0.001175871046
 37      -0.000106722929
 38       0.002250679974
 39       0.000722782305
 40       0.000069913063
 41      -0.001475784083
 42      -0.000474084602
 43      -0.000048228444
 44       0.001011893198
 45       0.000325140356
 46       0.000010413003
 47      -0.000279191751
 48      -0.000092714810
 49      -0.000006171978
 50       0.000141927415
 51       0.000046193607
 52       0.000001373462
 53      -0.000036196724
 54      -0.000011867551
 55       0.000000048941
 56       0.000000068101
 57       0.000000069021
 58       0.000000022393
 59       0.000000199255
 60      -0.000001067009
 61      -0.000001297363
 62      -0.000001399424
 63      -0.000000779135
 64      -0.000003340129
 65       0.000003266749
 66       0.000004190344
 67       0.000004291747
 68       0.000002381398
 69       0.000010768443
 70      -0.000007819483
 71      -0.000009936789
 72      -0.000010261482
 73      -0.000005718480
 74      -0.000025522559
 75       0.000017362144
 76       0.000022038413
 77       0.000022834946
 78       0.000012670963
 79       0.000056637179
 80      -0.000033037620
 81      -0.000042410147
 82      -0.000043175505
 83      -0.000024679032
 84      -0.000107678859
 85      -0.000016880969
 86      -0.000013823072
 87      -0.000034653108
 88      -0.000000190460
 89      -0.000055171361
 90       0.000004473064
 91       0.000004021340
 92       0.000008779261
 93       0.000000102293
 94       0.000015094905
 95      -0.000003227597
 96      -0.000003893116
 97      -0.000004644086
 98      -0.000001946260
 99      -0.000010513927
100       0.000002812299
101      -0.000001725946
102       0.000002348578
103       0.000002695996
104      -0.000002721976
105       0.000001385819
106      -0.000001001108
107      -0.000023883911
108       0.000015409135
109      -0.000020105045
110      -0.000023080854
111       0.000024384223
112      -0.000012321105
113       0.000008289964
114       0.000003347815
115       0.000000374045
116       0.000001957266
117       0.000003429705
118       0.000000985233
119       0.000000481400
120      -0.000002740780
121      -0.000000310969
122       0.000001781571
123      -0.000004343950
124       0.000014313668
125      -0.000030162834
126      -0.000023167186
127       0.000006226570
128      -0.000010993991
129      -0.000000056092
130      -0.000043019922
131       0.000086018375
132       0.000006347728
133      -0.000087833483
134       0.000214885422
135       0.000035255501
136      -0.000001990810
137       0.000000176687
138      -0.000001124792
139      -0.000000795528
140      -0.000003555890
141       0.000011149220
142      -0.000001363702
143       0.000005936783
144       0.000005108643
145       0.000019196225
146      -0.000001282447
147       0.000002704639
148      -0.000005239704
149      -0.000001434753
150      -0.000001105283
151      -0.000007658675
152       0.000001213549
153       0.000000250610
154      -0.000001473615
155       0.000003732778
156      -0.000013028490
157       0.000030071575
158       0.000035672995
159      -0.000005238817
160      -0.000008685332
161      -0.000006137078
162       0.000041027667
163       0.000067624706
164       0.000046481310
165       0.000098096269
166       0.000168423872
167       0.000108975493
168      -0.000000083268
169      -0.000001500942
170      -0.000002128968
171       0.000000523746
172      -0.000002150722
173      -0.000000433175
174       0.000007916315
175       0.000013144640
176      -0.000005220853
177       0.000011211352
178      -0.000004115762
179       0.000000938272
180       0.000001251867
181      -0.000001955640
182       0.000006638077
183       0.000004527926
184      -0.000001572547
185      -0.000000016484
186       0.000000072089
187      -0.000000098335
188       0.000000451541
189       0.000004323017
190      -0.000004629781
191       0.000000528647
192       0.000000960121
193       0.000000669885
194      -0.000004929732
195      -0.000001743751
196      -0.000003882015
197      -0.000014751259
198       0.000014215947
199      -0.000005444626
200      -0.000000703901
201      -0.000000926426
202      -0.000001196514
203      -0.000000464676
204      -0.000002163973
205       0.000003144033
206       0.000003549910
207       0.000005047942
208       0.000001948527
209       0.000009354637
210       0.000000386350
211      -0.000001073574
212      -0.000000008021
213      -0.000001328176
214      -0.000001324842
215       0.000000900281
216       0.000001368790
217      -0.000000040089
218       0.000014765394
219       0.000006608410
220      -0.000003367275
221      -0.000004348006
222      -0.000003849467
223       0.000007842846
224      -0.000173508967
225      -0.000065575132
226      -0.000019570912
227       0.000038197606
228       0.000003976982
229      -0.000007894589
230       0.000161996445
231       0.000059773320
232       0.000021405008
233       0.000027019001
234       0.000020641896
 Sym=     1a
 Ene= -2.66513851962748E+02
 Spin= Alpha
 Occup= 1.000000
  1      -0.000000013798
  2      -0.000000018033
  3      -0.000000029561
  4      -0.000000072724
  5      -0.000000073328
  6      -0.000000081113
  7       0.000000357050
  8       0.000000168309
  9       0.000000053421
 10      -0.000000400186
 11       0.000000760367
 12      -0.000001138565
 13       0.000001733602
 14      -0.000001968164
 15      -0.000008158384
 16       0.000032156779
 17      -0.000005764977
 18       0.000001675312
 19       0.303301210623
 20      -0.042135130915
 21       0.176081692337
 22       0.411772409546
 23      -0.057204140951
 24       0.239054711135
 25       0.262545386730
 26      -0.036473248334
 27       0.152420879011
 28       0.014035602394
 29      -0.001949881978
 30       0.008148375176
 31       0.004764438960
 32      -0.000661824447
 33       0.002766000413
 34      -0.003304788206
 35       0.000459000523
 36      -0.001918598827
 37       0.002029653599
 38      -0.000281770920
 39       0.001178319514
 40      -0.001328515314
 41       0.000184066196
 42      -0.000771331754
 43       0.000908898615
 44      -0.000125020540
 45       0.000527860481
 46      -0.000257354612
 47       0.000044915864
 48      -0.000144975547
 49       0.000129478795
 50      -0.000020144121
 51       0.000074172963
 52      -0.000033449657
 53       0.000005388327
 54      -0.000019119542
 55      -0.000000056418
 56      -0.000000163889
 57       0.000000128906
 58      -0.000000249808
 59       0.000000050371
 60       0.000000479631
 61       0.000001778721
 62      -0.000001789092
 63       0.000003260729
 64      -0.000000858007
 65      -0.000001679215
 66      -0.000005801052
 67       0.000005729365
 68      -0.000010198137
 69       0.000002803196
 70       0.000003912893
 71       0.000013648280
 72      -0.000013572362
 73       0.000024213013
 74      -0.000006621917
 75      -0.000008659955
 76      -0.000030291996
 77       0.000030111228
 78      -0.000053769923
 79       0.000014681155
 80       0.000016120913
 81       0.000057762645
 82      -0.000057656693
 83       0.000102342506
 84      -0.000028851067
 85       0.000005534771
 86       0.000032835460
 87      -0.000019534241
 88       0.000053173540
 89      -0.000004339938
 90      -0.000002289794
 91      -0.000008781542
 92       0.000006094224
 93      -0.000014820853
 94       0.000001416786
 95       0.000001483887
 96       0.000005742006
 97      -0.000005257926
 98       0.000009968559
 99      -0.000002488213
100       0.000003840146
101      -0.000000332705
102      -0.000001689754
103      -0.000003156201
104      -0.000000537075
105      -0.000001207694
106      -0.000001423161
107      -0.000034137107
108       0.000002759434
109       0.000015280620
110       0.000027616253
111       0.000005033217
112       0.000010256543
113       0.000012296580
114       0.000001722009
115      -0.000000112590
116      -0.000001787052
117      -0.000001726585
118      -0.000001905014
119      -0.000003974134
120       0.000000510545
121       0.000000262812
122      -0.000001434132
123       0.000003248558
124      -0.000010960928
125       0.000006025962
126       0.000009392574
127      -0.000002176048
128       0.000006057705
129       0.000000834849
130       0.000018480885
131      -0.000043239937
132      -0.000005110856
133       0.000049623186
134      -0.000090420143
135      -0.000007002913
136       0.000000836417
137       0.000000652180
138      -0.000001163729
139       0.000002455278
140       0.000000229276
141      -0.000005616076
142      -0.000002305133
143       0.000004557867
144      -0.000011843273
145      -0.000004045702
146       0.000001750050
147      -0.000000506913
148       0.000002321289
149       0.000001446728
150       0.000001573731
151       0.000002895786
152      -0.000002961351
153       0.000000208139
154      -0.000001173960
155       0.000002798644
156      -0.000009056424
157       0.000016633852
158       0.000007842147
159      -0.000002258432
160      -0.000006393047
161      -0.000003555145
162       0.000022986137
163       0.000045144376
164       0.000028432187
165       0.000074246858
166       0.000094410571
167       0.000072155265
168       0.000000736022
169       0.000000558705
170      -0.000001774043
171       0.000002846962
172      -0.000000358846
173      -0.000003396638
174      -0.000001724740
175       0.000009570589
176      -0.000013694737
177       0.000002549817
178      -0.000002914883
179       0.000000045672
180       0.000000016649
181      -0.000003131821
182       0.000003177050
183       0.000003130980
184       0.000001285278
185      -0.000000267805
186       0.000001598115
187      -0.000004133645
188       0.000014616945
189      -0.000036758990
190      -0.000040299487
191      -0.000011913411