[Molden Format]
[Title]
 Molden file created by orca_2mkl for BaseName=/home/nikolayandreadi_2125/_scratch/F_cc/Tm_F_cc

[Atoms] AU
Tm   1  69          0.4256116788         0.4603675218        -0.7764147691 
F    2   9         -1.5232080811        -1.8709857199        -2.9304625666 
F    3   9         -1.5391063470         3.4773304125         0.1578941774 
F    4   9          3.9601365424        -0.1950707596         0.3072335646 
[GTO]
  1 0
s   6 1.0 
  1319284.9947909999      2612.7927579715
   586348.8865740000      -709.4442498508
   260599.5051440000      1510.6834110105
   115822.0022860000       316.8056665606
    51476.4454610000       886.9370256752
    22878.4202050000       639.6546354182
s   1 1.0 
    10168.1867580000       721.6767731110
s   1 1.0 
     4519.1941150000       392.8310785418
s   1 1.0 
     2008.5307180000       213.8301550254
s   1 1.0 
      892.6803190000       116.3943936408
s   1 1.0 
      396.7468080000        63.3570829114
s   1 1.0 
      176.3319150000        34.4872277653
s   1 1.0 
       78.3697400000        18.7724690374
s   1 1.0 
       34.8309960000        10.2184379542
s   1 1.0 
       15.4804420000         5.5622129217
s   1 1.0 
        6.8801970000         3.0276854053
s   1 1.0 
        3.0578650000         1.6480630530
s   1 1.0 
        1.3590510000         0.8970918436
s   1 1.0 
        0.6040230000         0.4883151508
s   1 1.0 
        0.2684550000         0.2658053482
s   1 1.0 
        0.1193130000         0.1446858022
s   1 1.0 
        0.0530280000         0.0787569752
s   1 1.0 
        0.0235680000         0.0428698673
p   5 1.0 
    18167.9700320000      4276.3190036639
     7267.1880130000      1622.6508988842
     2906.8752050000      2563.2682837476
     1162.7500820000      2427.3733177812
      465.1000330000      2276.3124957386
p   1 1.0 
      186.0400130000       979.3728025536
p   1 1.0 
       74.4160050000       311.5466079219
p   1 1.0 
       29.7664020000        99.1055591708
p   1 1.0 
       11.9065610000        31.5263007686
p   1 1.0 
        4.7626240000        10.0287766222
p   1 1.0 
        1.9050500000         3.1902378345
p   1 1.0 
        0.7620200000         1.0148411070
p   1 1.0 
        0.3048080000         0.3228293707
p   1 1.0 
        0.1219230000         0.1026944890
p   1 1.0 
        0.0487690000         0.0326678010
p   1 1.0 
        0.0195080000         0.0103921647
d   4 1.0 
     1329.8192350000      6851.9549332394
      483.5706310000      6453.4619104032
      175.8438660000      6042.5378437114
       63.9432240000      3305.1590466818
d   1 1.0 
       23.2520810000       701.9049111231
d   1 1.0 
        8.4553020000       119.5215043070
d   1 1.0 
        3.0746550000        20.3523128069
d   1 1.0 
        1.1180570000         3.4656283475
d   1 1.0 
        0.4065660000         0.5901323645
d   1 1.0 
        0.1478420000         0.1004884817
d   1 1.0 
        0.0537610000         0.0171114939
d   1 1.0 
        0.0195490000         0.0029136544
f   4 1.0 
       39.2338200000      2365.3777040161
       13.0779400000       653.8517677584
        4.3593130000        81.3062960040
        1.4531040000         4.7585868412
f   1 1.0 
        0.4843680000         1.1159502330
f   1 1.0 
        0.1614560000         0.0942154234

  2 0
s   6 1.0 
    35479.1004410000         1.9229128581
     5318.4728983000         2.2734773358
     1210.4810975000         3.4747482552
      342.8551814000         5.2879612972
      112.0194318100         7.1666332516
       40.7147402500         7.7556346254
s   1 1.0 
       16.0396781100         5.7122450312
s   1 1.0 
        6.5038186700         2.9025947842
s   1 1.0 
        1.5440477500         0.9872011154
s   1 1.0 
        0.6122345300        -0.4932856223
s   1 1.0 
        0.2402798000         0.2445952611
p   4 1.0 
       80.2339004800         4.2755032106
       18.5940107400         4.7314752302
        5.6867902700         4.0864798013
        1.9511006300         2.2989954518
p   1 1.0 
        0.6697021100         0.8635593126
p   1 1.0 
        0.2165130000         0.2105208234
d   1 1.0 
        3.1070000000        20.7284714039
d   1 1.0 
        0.8550000000         2.1672588463
f   1 1.0 
        1.9170000000        24.6547062912

  3 0
s   6 1.0 
    35479.1004410000         1.9229128581
     5318.4728983000         2.2734773358
     1210.4810975000         3.4747482552
      342.8551814000         5.2879612972
      112.0194318100         7.1666332516
       40.7147402500         7.7556346254
s   1 1.0 
       16.0396781100         5.7122450312
s   1 1.0 
        6.5038186700         2.9025947842
s   1 1.0 
        1.5440477500         0.9872011154
s   1 1.0 
        0.6122345300        -0.4932856223
s   1 1.0 
        0.2402798000         0.2445952611
p   4 1.0 
       80.2339004800         4.2755032106
       18.5940107400         4.7314752302
        5.6867902700         4.0864798013
        1.9511006300         2.2989954518
p   1 1.0 
        0.6697021100         0.8635593126
p   1 1.0 
        0.2165130000         0.2105208234
d   1 1.0 
        3.1070000000        20.7284714039
d   1 1.0 
        0.8550000000         2.1672588463
f   1 1.0 
        1.9170000000        24.6547062912

  4 0
s   6 1.0 
    35479.1004410000         1.9229128581
     5318.4728983000         2.2734773358
     1210.4810975000         3.4747482552
      342.8551814000         5.2879612972
      112.0194318100         7.1666332516
       40.7147402500         7.7556346254
s   1 1.0 
       16.0396781100         5.7122450312
s   1 1.0 
        6.5038186700         2.9025947842
s   1 1.0 
        1.5440477500         0.9872011154
s   1 1.0 
        0.6122345300        -0.4932856223
s   1 1.0 
        0.2402798000         0.2445952611
p   4 1.0 
       80.2339004800         4.2755032106
       18.5940107400         4.7314752302
        5.6867902700         4.0864798013
        1.9511006300         2.2989954518
p   1 1.0 
        0.6697021100         0.8635593126
p   1 1.0 
        0.2165130000         0.2105208234
d   1 1.0 
        3.1070000000        20.7284714039
d   1 1.0 
        0.8550000000         2.1672588463
f   1 1.0 
        1.9170000000        24.6547062912

[5D]
[7F]
[9G]
[MO]
 Sym=     1a
 Ene= -2.19000121679702E+03
 Spin= Alpha
 Occup= 1.000000
  1      -0.095749054412
  2      -0.104044570380
  3      -0.178121536670
  4      -0.300852460661
  5      -0.333544207622
  6      -0.166362833381
  7      -0.009003485195
  8      -0.003392386464
  9       0.002469261726
 10      -0.001636746257
 11       0.001100970687
 12      -0.000740460766
 13       0.000495519930
 14      -0.000336379094
 15       0.000237617149
 16      -0.000159835723
 17       0.000050439653
 18      -0.000012280239
 19      -0.000000081499
 20      -0.000000000361
 21      -0.000000033402
 22       0.000000057304
 23      -0.000000004245
 24       0.000000020815
 25      -0.000000050493
 26       0.000000002206
 27      -0.000000019209
 28       0.000000053644
 29      -0.000000003293
 30       0.000000019799
 31      -0.000000072773
 32       0.000000005100
 33      -0.000000026439
 34       0.000000114875
 35      -0.000000008530
 36       0.000000041431
 37      -0.000000203986
 38       0.000000017748
 39      -0.000000072117
 40       0.000000349079
 41      -0.000000035492
 42       0.000000120451
 43      -0.000000408669
 44       0.000000036191
 45      -0.000000142342
 46       0.000001060212
 47      -0.000000160958
 48       0.000000332511
 49      -0.000000327092
 50       0.000000052273
 51      -0.000000102858
 52       0.000000069651
 53      -0.000000013050
 54       0.000000020912
 55       0.000000094406
 56      -0.000000216845
 57      -0.000000100931
 58      -0.000000161862
 59      -0.000000037409
 60      -0.000000199827
 61       0.000000283531
 62       0.000000226023
 63       0.000000165037
 64      -0.000000051879
 65       0.000000381948
 66      -0.000000427781
 67      -0.000000441712
 68      -0.000000198364
 69       0.000000183997
 70      -0.000000742685
 71       0.000000755360
 72       0.000000866750
 73       0.000000305989
 74      -0.000000414206
 75       0.000001428210
 76      -0.000001408448
 77      -0.000001675616
 78      -0.000000538291
 79       0.000000827936
 80      -0.000002482455
 81       0.000002433074
 82       0.000002915876
 83       0.000000918173
 84      -0.000001449771
 85       0.000007314371
 86      -0.000007145456
 87      -0.000008507648
 88      -0.000002763224
 89       0.000004312270
 90      -0.000000539679
 91       0.000000539418
 92       0.000000478217
 93       0.000000358546
 94      -0.000000349217
 95      -0.000000002285
 96       0.000000000609
 97       0.000000034268
 98      -0.000000030929
 99       0.000000005930
100       0.000000066484
101       0.000000066644
102       0.000000109331
103      -0.000000086117
104       0.000000271620
105       0.000000340507
106      -0.000000093162
107      -0.000000376751
108      -0.000000375213
109      -0.000000604664
110       0.000000486050
111      -0.000001507979
112      -0.000001898691
113       0.000000522767
114       0.000001612476
115       0.000001587510
116       0.000002342873
117      -0.000002071314
118       0.000005963600
119       0.000007642402
120      -0.000002175550
121      -0.000000184892
122       0.000000845875
123      -0.000001586603
124       0.000004363816
125       0.000008323877
126       0.000018785888
127       0.000000384431
128       0.000000447580
129       0.000000417796
130      -0.000001424102
131      -0.000001660788
132      -0.000001549265
133       0.000004373222
134       0.000004446940
135       0.000004379262
136      -0.000000058739
137       0.000000209490
138       0.000000281105
139      -0.000000036758
140       0.000000137509
141       0.000000157684
142      -0.000001017815
143      -0.000001314862
144       0.000000201400
145      -0.000000863807
146       0.000000197609
147      -0.000000097397
148      -0.000000120080
149       0.000000054149
150      -0.000000340037
151      -0.000000153559
152       0.000000093522
153      -0.000000184519
154       0.000000844440
155      -0.000001584943
156       0.000004374182
157       0.000008372002
158       0.000018936425
159       0.000000387434
160      -0.000000582315
161      -0.000000176935
162      -0.000001448702
163       0.000002179317
164       0.000000662732
165       0.000004484112
166      -0.000006016334
167      -0.000001629695
168      -0.000000177340
169      -0.000000012661
170       0.000000200179
171      -0.000000103839
172      -0.000000246246
173       0.000000834976
174       0.000000238184
175      -0.000000863877
176       0.000000583423
177       0.000001314838
178      -0.000000154548
179       0.000000115935
180      -0.000000158301
181      -0.000000101844
182      -0.000000182101
183      -0.000000313128
184      -0.000000065751
185      -0.000000185458
186       0.000000846983
187      -0.000001582887
188       0.000004271862
189       0.000008076048
190       0.000019012609
191      -0.000000685938
192       0.000000127628
193      -0.000000210041
194       0.000002368277
195      -0.000000441432
196       0.000000724773
197      -0.000007344631
198       0.000001412868
199      -0.000002222863
200      -0.000000198658
201       0.000000229500
202       0.000000072704
203       0.000000260072
204      -0.000000133444
205       0.000000832746
206      -0.000000993034
207      -0.000000127269
208      -0.000001289333
209       0.000000584102
210      -0.000000198955
211      -0.000000179173
212       0.000000048596
213       0.000000256239
214      -0.000000068142
215      -0.000000286572
216       0.000000190158
 Sym=     1a
 Ene= -3.74975789698007E+02
 Spin= Alpha
 Occup= 1.000000
  1      -0.036561742724
  2      -0.043964438814
  3      -0.076062845532
  4      -0.151602066005
  5      -0.202340593728
  6      -0.066681888484
  7       0.489178206636
  8       0.586158965702
  9       0.084485098469
 10       0.004797833950
 11      -0.004227997505
 12       0.002990239415
 13      -0.002133978711
 14       0.001493309629
 15      -0.001063393922
 16       0.000718884382
 17      -0.000227075892
 18       0.000055343649
 19       0.000000980164
 20       0.000000204221
 21       0.000000520707
 22       0.000001417424
 23       0.000000301087
 24       0.000000756182
 25       0.000001289732
 26       0.000000215039
 27       0.000000653280
 28       0.000000263793
 29      -0.000000031255
 30       0.000000090038
 31       0.000000177720
 32       0.000000006854
 33       0.000000075591
 34      -0.000000455062
 35       0.000000035368
 36      -0.000000163216
 37       0.000000882179
 38      -0.000000089892
 39       0.000000304418
 40      -0.000001576324
 41       0.000000186739
 42      -0.000000528953
 43       0.000001897703
 44      -0.000000206972
 45       0.000000639216
 46      -0.000004787270
 47       0.000000763211
 48      -0.000001480437
 49       0.000001479790
 50      -0.000000241604
 51       0.000000462428
 52      -0.000000315588
 53       0.000000059900
 54      -0.000000094321
 55      -0.000010735166
 56       0.000027573382
 57       0.000011230695
 58       0.000021394852
 59       0.000006421196
 60      -0.000001080130
 61       0.000003012470
 62       0.000001098936
 63       0.000002407001
 64       0.000000821903
 65      -0.000001023207
 66       0.000000637674
 67       0.000001244891
 68      -0.000000007541
 69      -0.000000866337
 70       0.000002892930
 71      -0.000002661108
 72      -0.000003416487
 73      -0.000000887806
 74       0.000001818223
 75      -0.000006322635
 76       0.000006116336
 77       0.000007434807
 78       0.000002254557
 79      -0.000003751706
 80       0.000011181039
 81      -0.000010873453
 82      -0.000013150474
 83      -0.000004038397
 84       0.000006590213
 85      -0.000032991858
 86       0.000032177146
 87       0.000038381329
 88       0.000012406859
 89      -0.000019489062
 90       0.000002421365
 91      -0.000002408318
 92      -0.000002134971
 93      -0.000001607655
 94       0.000001578832
 95       0.000000014329
 96      -0.000000010620
 97      -0.000000160854
 98       0.000000135810
 99      -0.000000027845
100      -0.000000317388
101      -0.000000325106
102      -0.000000527738
103       0.000000421557
104      -0.000001313759
105      -0.000001644732
106       0.000000451035
107       0.000001735198
108       0.000001724583
109       0.000002792097
110      -0.000002235449
111       0.000006955328
112       0.000008754763
113      -0.000002404866
114      -0.000007302741
115      -0.000007183300
116      -0.000010608292
117       0.000009374711
118      -0.000026997452
119      -0.000034600421
120       0.000009845584
121       0.000000707476
122      -0.000003506311
123       0.000006883414
124      -0.000019482543
125      -0.000037219550
126      -0.000084606810
127      -0.000001763095
128      -0.000002050547
129      -0.000001914855
130       0.000006386193
131       0.000007436393
132       0.000006940994
133      -0.000019708101
134      -0.000019995377
135      -0.000019709295
136       0.000000262493
137      -0.000000974206
138      -0.000001299871
139       0.000000169862
140      -0.000000654984
141      -0.000000711646
142       0.000004640942
143       0.000005985897
144      -0.000000913362
145       0.000003948225
146      -0.000000904306
147       0.000000447767
148       0.000000550574
149      -0.000000246662
150       0.000001561314
151       0.000000706414
152      -0.000000432152
153       0.000000707462
154      -0.000003507081
155       0.000006889268
156      -0.000019560798
157      -0.000037477144
158      -0.000085340176
159      -0.000001781498
160       0.000002676193
161       0.000000812769
162       0.000006510342
163      -0.000009783426
164      -0.000002972332
165      -0.000020215907
166       0.000027084041
167       0.000007324267
168       0.000000824287
169       0.000000074208
170      -0.000000921364
171       0.000000488567
172       0.000001158556
173      -0.000003813721
174      -0.000001099717
175       0.000003935678
176      -0.000002666400
177      -0.000006017052
178       0.000000711106
179      -0.000000532431
180       0.000000729207
181       0.000000465069
182       0.000000839610
183       0.000001443847
184       0.000000302804
185       0.000000708308
186      -0.000003504718
187       0.000006855507
188      -0.000019047723
189      -0.000036095840
190      -0.000085655554
191       0.000003135661
192      -0.000000583000
193       0.000000960423
194      -0.000010588219
195       0.000001973247
196      -0.000003240538
197       0.000033076571
198      -0.000006361668
199       0.000010011355
200       0.000000910678
201      -0.000001055220
202      -0.000000318840
203      -0.000001209024
204       0.000000613256
205      -0.000003779491
206       0.000004510449
207       0.000000567242
208       0.000005864993
209      -0.000002651176
210       0.000000906560
211       0.000000815746
212      -0.000000219460
213      -0.000001167678
214       0.000000313280
215       0.000001308936
216      -0.000000865602
 Sym=     1a
 Ene= -3.32038804535280E+02
 Spin= Alpha
 Occup= 1.000000
  1      -0.000000150523
  2      -0.000000185290
  3      -0.000000303614
  4      -0.000000669794
  5      -0.000000751226
  6      -0.000000479234
  7       0.000002812480
  8       0.000001721065
  9       0.000000864728
 10      -0.000002637163
 11       0.000004851977
 12      -0.000008010175
 13       0.000013270535
 14      -0.000018594399
 15       0.000014433814
 16      -0.000003982354
 17       0.000000286770
 18       0.000000028247
 19      -0.313700489627
 20      -0.065798497514
 21      -0.167311803860
 22      -0.416064815822
 23      -0.087269537691
 24      -0.221907803500
 25      -0.260115492330
 26      -0.054559102736
 27      -0.138732322922
 28      -0.011993920584
 29      -0.002516238599
 30      -0.006397229272
 31      -0.004976676605
 32      -0.001042817656
 33      -0.002653735341
 34       0.003414466280
 35       0.000714264933
 36       0.001820048456
 37      -0.002084074195
 38      -0.000433715475
 39      -0.001109662970
 40       0.001314947307
 41       0.000270275322
 42       0.000698297920
 43      -0.000844338622
 44      -0.000170278284
 45      -0.000446608221
 46       0.000549108126
 47       0.000106427614
 48       0.000288065320
 49      -0.000199082005
 50      -0.000040322200
 51      -0.000105379925
 52       0.000059044974
 53       0.000012266383
 54       0.000031425599
 55       0.000000072176
 56      -0.000000400418
 57      -0.000000106832
 58      -0.000000320338
 59      -0.000000215192
 60       0.000000652841
 61      -0.000000067122
 62       0.000001574298
 63      -0.000001935200
 64       0.000001446910
 65      -0.000001917068
 66       0.000000053176
 67      -0.000004938008
 68       0.000005845636
 69      -0.000004445196
 70       0.000004525459
 71      -0.000000312511
 72       0.000011513720
 73      -0.000013841249
 74       0.000010311762
 75      -0.000009219112
 76       0.000000605132
 77      -0.000023557505
 78       0.000028264802
 79      -0.000021057487
 80       0.000014170625
 81      -0.000000923936
 82       0.000035659760
 83      -0.000042914231
 84       0.000032221634
 85      -0.000019121061
 86       0.000003685202
 87      -0.000040663968
 88       0.000053100719
 89      -0.000039618043
 90      -0.000000239640
 91      -0.000000523824
 92      -0.000000829751
 93       0.000000428158
 94      -0.000001016070
 95       0.000000592186
 96       0.000000019845
 97       0.000001430848
 98      -0.000001680629
 99       0.000001375454
100      -0.000001029137
101      -0.000000881300
102       0.000001518777
103      -0.000001259979
104       0.000001224131
105       0.000001389336
106       0.000002229772
107       0.000016237539
108       0.000004450475
109      -0.000009270547
110      -0.000008845642
111      -0.000014344244
112       0.000002046735
113      -0.000005072581
114      -0.000019846961
115      -0.000005476404
116       0.000009747991
117       0.000012146651
118       0.000014925010
119      -0.000005762784
120       0.000005724251
121      -0.000001972337
122       0.000009968334
123      -0.000019715075
124       0.000054776627
125       0.000082856970
126       0.000112343533
127       0.000007330239
128       0.000010124940
129       0.000008888299
130      -0.000027634076
131      -0.000035815560
132      -0.000032142785
133       0.000019800362
134       0.000028238935
135       0.000024528845
136       0.000000265317
137       0.000004059704
138       0.000006163125
139      -0.000002181806
140       0.000005156010
141      -0.000000787799
142      -0.000018880990
143      -0.000026490207
144       0.000007820131
145      -0.000022669101
146       0.000002610084
147      -0.000001228595
148      -0.000002144256
149       0.000002519698
150      -0.000004851117
151      -0.000003337513
152       0.000000182823
153      -0.000000422566
154       0.000002143240
155      -0.000004266463
156       0.000012161697
157       0.000018592989
158       0.000021003997
159       0.000000560038
160      -0.000003366472
161      -0.000001715060
162      -0.000004352715
163       0.000011868977
164       0.000005066939
165       0.000001932808
166      -0.000008799879
167      -0.000004283897
168      -0.000000008197
169      -0.000000858551
170       0.000001911935
171      -0.000002645237
172      -0.000000143125
173       0.000001319562
174       0.000003237858
175      -0.000006878570
176       0.000008929508
177       0.000002741900
178      -0.000001231060
179      -0.000000951068
180       0.000000309304
181      -0.000002000903
182      -0.000001410570
183      -0.000001000177
184       0.000002978485
185       0.000002228722
186      -0.000011233073
187       0.000022095067
188      -0.000060021139
189      -0.000090617452
190      -0.000130486484
191       0.000015834705
192      -0.000003400331
193       0.000004588680
194      -0.000055050875
195       0.000011000063
196      -0.000016424082
197       0.000047880762
198      -0.000010532558
199       0.000013734467
200       0.000004084272
201      -0.000004357985
202       0.000001312875
203      -0.000007683901
204       0.000003779768
205      -0.000016865660
206       0.000018951827
207      -0.000004983063
208       0.000032225162
209      -0.000014763907
210       0.000002796930
211       0.000003265605
212      -0.000000803774
213      -0.000003217983
214       0.000001883008
215       0.000004402941
216      -0.000004098768
 Sym=     1a
 Ene= -3.32028949115858E+02
 Spin= Alpha
 Occup= 1.000000
  1      -0.000000006764
  2      -0.000000009690
  3      -0.000000009442
  4      -0.000000044877
  5       0.000000000256
  6      -0.000000108725
  7       0.000000341245
  8      -0.000000110894
  9       0.000000282956
 10      -0.000001097298
 11       0.000002019036
 12      -0.000003366376
 13       0.000005703477
 14      -0.000008117526
 15       0.000005578710
 16      -0.000000007701
 17       0.000000003487
 18      -0.000000054910
 19      -0.131879079797
 20       0.312921511245
 21       0.124203301974
 22      -0.174913888883
 23       0.415034567493
 24       0.164733587658
 25      -0.109342272821
 26       0.259446444152
 27       0.102978251865
 28      -0.005032994249
 29       0.011943521490
 30       0.004740726047
 31      -0.002093847140
 32       0.004965712616
 33       0.001970648577
 34       0.001436446406
 35      -0.003403676932
 36      -0.001350381963
 37      -0.000877157839
 38       0.002072906235
 39       0.000821726259
 40       0.000554245794
 41      -0.001301458623
 42      -0.000514921117
 43      -0.000356658440
 44       0.000829350192
 45       0.000327193303
 46       0.000232636820
 47      -0.000529994037
 48      -0.000207592292
 49      -0.000083975715
 50       0.000195599973
 51       0.000077115958
 52       0.000024872897
 53      -0.000058698298
 54      -0.000023252351
 55       0.000000163169
 56       0.000000118181
 57       0.000000228528
 58      -0.000000198144
 59       0.000000423583
 60      -0.000000585797
 61      -0.000001686762
 62       0.000000019728
 63      -0.000001293425
 64      -0.000002224463
 65       0.000002018925
 66       0.000005273033
 67      -0.000000172972
 68       0.000004042446
 69       0.000007234671
 70      -0.000004643221
 71      -0.000012288472
 72       0.000000499671
 73      -0.000009548130
 74      -0.000016729781
 75       0.000009553649
 76       0.000025145383
 77      -0.000001058501
 78       0.000019542979
 79       0.000034308854
 80      -0.000014622210
 81      -0.000038518374
 82       0.000001466054
 83      -0.000029794920
 84      -0.000052576109
 85       0.000015771587
 86       0.000046601656
 87      -0.000000808158
 88       0.000036201974
 89       0.000060720902
 90       0.000000801020
 91       0.000001262873
 92       0.000000162104
 93       0.000000595192
 94       0.000002312309
 95      -0.000000644173
 96      -0.000001628265
 97       0.000000013599
 98      -0.000001198541
 99      -0.000002279484
100       0.000001551442
101      -0.000000581469
102       0.000001025029
103       0.000000812418
104       0.000001522466
105       0.000002675095
106      -0.000000115509
107      -0.000011941015
108       0.000013083463
109      -0.000006308443
110      -0.000011954137
111       0.000001520804
112      -0.000008494506
113      -0.000010363573
114       0.000013532884
115      -0.000016728300
116       0.000007459832
117       0.000012633712
118      -0.000004071094
119       0.000008637148
120       0.000015338434
121       0.000001339160
122      -0.000006759934
123       0.000013341065
124      -0.000036754919
125      -0.000055484326
126      -0.000081283658
127      -0.000006369450
128      -0.000005531541
129      -0.000005842869
130       0.000021043694
131       0.000020867392
132       0.000020788907
133      -0.000015835962
134      -0.000017280679
135      -0.000016594122
136       0.000000114359
137      -0.000004389421
138      -0.000003085161
139      -0.000001296765
140      -0.000003925012
141      -0.000000296729
142       0.000017492336
143       0.000014384900
144       0.000003069218
145       0.000016500773
146      -0.000001943736
147       0.000001474328
148       0.000000754031
149       0.000001699260
150       0.000003952147
151       0.000000728171
152      -0.000002951430
153      -0.000002352753
154       0.000011888818
155      -0.000023510065
156       0.000065299754
157       0.000098730607
158       0.000137180759
159       0.000009840669
160      -0.000014624443
161      -0.000004409320
162      -0.000035188419
163       0.000053005895
164       0.000016160449
165       0.000024990865
166      -0.000040981951
167      -0.000013448137
168      -0.000004520126
169      -0.000002603605
170       0.000003448196
171      -0.000003205017
172      -0.000008441758
173       0.000019738148
174       0.000011301279
175      -0.000015673993
176       0.000014561513
177       0.000036638387
178      -0.000002703007
179       0.000002055350
180      -0.000002962310
181      -0.000001227432
182      -0.000003353358
183      -0.000005916184
184      -0.000001505422
185       0.000000949104
186      -0.000004784848
187       0.000009416891
188      -0.000025645952
189      -0.000038917559
190      -0.000056402492
191       0.000006754324
192      -0.000000112713
193       0.000002720654
194      -0.000023550932
195       0.000002383543
196      -0.000008350960
197       0.000020922726
198       0.000001199793
199       0.000009302842
200       0.000001006243
201      -0.000003193563
202       0.000000096699
203      -0.000003708097
204      -0.000000745723
205      -0.000005101502
206       0.000011922816
207      -0.000000803717
208       0.000015006236
209       0.000000439915
210       0.000001880690
211      -0.000000087413
212       0.000000510727
213      -0.000003289009
214      -0.000000258789
215       0.000003100725
216       0.000001483127
 Sym=     1a
 Ene= -3.32026004282302E+02
 Spin= Alpha
 Occup= 1.000000
  1       0.000000000235
  2       0.000000000315
  3       0.000000000395
  4       0.000000001326
  5       0.000000000528
  6       0.000000002363
  7      -0.000000008388
  8       0.000000001853
  9      -0.000000008172
 10       0.000000023629
 11      -0.000000042327
 12       0.000000068466
 13      -0.000000109702
 14       0.000000154767
 15      -0.000000156598
 16       0.000000092949
 17       0.000000005604
 18      -0.000000003813
 19       0.122199487393
 20       0.168787182028
 21      -0.295496084349
 22       0.162076900101
 23       0.223867592304
 24      -0.391925453499
 25       0.101313918886
 26       0.139939133690
 27      -0.244991751340
 28       0.004664745144
 29       0.006443205246
 30      -0.011280032210
 31       0.001933009848
 32       0.002669834439
 33      -0.004674290391
 34      -0.001317272309
 35      -0.001819248840
 36       0.003185340294
 37       0.000787520701
 38       0.001087347931
 39      -0.001904311622
 40      -0.000470164008
 41      -0.000648703747
 42       0.001136878722
 43       0.000273750313
 44       0.000377187708
 45      -0.000661912179
 46      -0.000151360218
 47      -0.000208034461
 48       0.000365951045
 49       0.000070294873
 50       0.000096979388
 51      -0.000169973937
 52      -0.000022410907
 53      -0.000030945072
 54       0.000054192088
 55      -0.000000294231
 56      -0.000000301034
 57       0.000000066880
 58       0.000000136599
 59       0.000000223956
 60      -0.000000006018
 61      -0.000000001364
 62       0.000000002314
 63       0.000000008108
 64       0.000000021358
 65      -0.000000108094
 66      -0.000000157359
 67       0.000000043612
 68       0.000000058397
 69       0.000000038717
 70       0.000000117287
 71       0.000000208613