[Molden Format]
[Title]
 Molden file created by orca_2mkl for BaseName=/home/nikolayandreadi_2125/_scratch/F_cc/Pm_F_cc

[Atoms] AU
Pm   1  61          0.2050333958         0.3491514697        -0.5486763138 
F    2   9         -1.4142974948        -2.1310706174        -3.1361932713 
F    3   9         -1.5017464614         3.7958513112         0.2906965712 
F    4   9          4.0344443534        -0.1422925984         0.1524234202 
[GTO]
  1 0
s   6 1.0 
  1028523.6509460000      1938.6121026123
   457121.6226430000      -507.6849850967
   203165.1656190000      1141.5619094338
    90295.6291640000       276.3700689820
    40131.3907400000       711.5996470204
    17836.1736620000       554.3401448036
s   1 1.0 
     7927.1882940000       598.7554407759
s   1 1.0 
     3523.1947970000       325.9211801138
s   1 1.0 
     1565.8643540000       177.4090194577
s   1 1.0 
      695.9397130000        96.5692385535
s   1 1.0 
      309.3065390000        52.5656353870
s   1 1.0 
      137.4695730000        28.6131077292
s   1 1.0 
       61.0975880000        15.5750030871
s   1 1.0 
       27.1544840000         8.4779579498
s   1 1.0 
       12.0686590000         4.6148156268
s   1 1.0 
        5.3638490000         2.5119876491
s   1 1.0 
        2.3839330000         1.3673529323
s   1 1.0 
        1.0595260000         0.7442927799
s   1 1.0 
        0.4709000000         0.4051413865
s   1 1.0 
        0.2092890000         0.2205311257
s   1 1.0 
        0.0930170000         0.1200416175
s   1 1.0 
        0.0413410000         0.0653425119
s   1 1.0 
        0.0183740000         0.0355682810
p   5 1.0 
    13902.5411060000      2568.5145477876
     5561.0164430000      1081.0356736804
     2224.4065770000      1714.7353229019
      889.7626310000      1715.9795287132
      355.9050520000      1644.2651453214
p   1 1.0 
      142.3620210000       700.9431061620
p   1 1.0 
       56.9448080000       222.9758119869
p   1 1.0 
       22.7779230000        70.9304538200
p   1 1.0 
        9.1111690000        22.5635648614
p   1 1.0 
        3.6444680000         7.1776580531
p   1 1.0 
        1.4577870000         2.2832721487
p   1 1.0 
        0.5831150000         0.7263281137
p   1 1.0 
        0.2332460000         0.2310509953
p   1 1.0 
        0.0932980000         0.0734988435
p   1 1.0 
        0.0373190000         0.0233804349
p   1 1.0 
        0.0149280000         0.0074377593
d   4 1.0 
      961.1107520000      3886.1580211301
      349.4948190000      3760.9041730743
      127.0890250000      3496.7670385456
       46.2141910000      1860.8963173302
d   1 1.0 
       16.8051600000       397.6442657049
d   1 1.0 
        6.1109670000        67.7115064157
d   1 1.0 
        2.2221700000        11.5300269891
d   1 1.0 
        0.8080620000         1.9633525042
d   1 1.0 
        0.2938410000         0.3343233977
d   1 1.0 
        0.1068510000         0.0569288771
d   1 1.0 
        0.0388550000         0.0096939814
d   1 1.0 
        0.0141290000         0.0016506883
f   4 1.0 
       25.1300980000       848.4519484560
        8.3766990000       228.5051917205
        2.7922330000        29.8202676408
        0.9307440000         1.8405872106
f   1 1.0 
        0.3102480000         0.4095861926
f   1 1.0 
        0.1034160000         0.0345798006

  2 0
s   6 1.0 
    35479.1004410000         1.9229128581
     5318.4728983000         2.2734773358
     1210.4810975000         3.4747482552
      342.8551814000         5.2879612972
      112.0194318100         7.1666332516
       40.7147402500         7.7556346254
s   1 1.0 
       16.0396781100         5.7122450312
s   1 1.0 
        6.5038186700         2.9025947842
s   1 1.0 
        1.5440477500         0.9872011154
s   1 1.0 
        0.6122345300        -0.4932856223
s   1 1.0 
        0.2402798000         0.2445952611
p   4 1.0 
       80.2339004800         4.2755032106
       18.5940107400         4.7314752302
        5.6867902700         4.0864798013
        1.9511006300         2.2989954518
p   1 1.0 
        0.6697021100         0.8635593126
p   1 1.0 
        0.2165130000         0.2105208234
d   1 1.0 
        3.1070000000        20.7284714039
d   1 1.0 
        0.8550000000         2.1672588463
f   1 1.0 
        1.9170000000        24.6547062912

  3 0
s   6 1.0 
    35479.1004410000         1.9229128581
     5318.4728983000         2.2734773358
     1210.4810975000         3.4747482552
      342.8551814000         5.2879612972
      112.0194318100         7.1666332516
       40.7147402500         7.7556346254
s   1 1.0 
       16.0396781100         5.7122450312
s   1 1.0 
        6.5038186700         2.9025947842
s   1 1.0 
        1.5440477500         0.9872011154
s   1 1.0 
        0.6122345300        -0.4932856223
s   1 1.0 
        0.2402798000         0.2445952611
p   4 1.0 
       80.2339004800         4.2755032106
       18.5940107400         4.7314752302
        5.6867902700         4.0864798013
        1.9511006300         2.2989954518
p   1 1.0 
        0.6697021100         0.8635593126
p   1 1.0 
        0.2165130000         0.2105208234
d   1 1.0 
        3.1070000000        20.7284714039
d   1 1.0 
        0.8550000000         2.1672588463
f   1 1.0 
        1.9170000000        24.6547062912

  4 0
s   6 1.0 
    35479.1004410000         1.9229128581
     5318.4728983000         2.2734773358
     1210.4810975000         3.4747482552
      342.8551814000         5.2879612972
      112.0194318100         7.1666332516
       40.7147402500         7.7556346254
s   1 1.0 
       16.0396781100         5.7122450312
s   1 1.0 
        6.5038186700         2.9025947842
s   1 1.0 
        1.5440477500         0.9872011154
s   1 1.0 
        0.6122345300        -0.4932856223
s   1 1.0 
        0.2402798000         0.2445952611
p   4 1.0 
       80.2339004800         4.2755032106
       18.5940107400         4.7314752302
        5.6867902700         4.0864798013
        1.9511006300         2.2989954518
p   1 1.0 
        0.6697021100         0.8635593126
p   1 1.0 
        0.2165130000         0.2105208234
d   1 1.0 
        3.1070000000        20.7284714039
d   1 1.0 
        0.8550000000         2.1672588463
f   1 1.0 
        1.9170000000        24.6547062912

[5D]
[7F]
[9G]
[MO]
 Sym=     1a
 Ene= -1.66687717374455E+03
 Spin= Alpha
 Occup= 1.000000
  1       0.082189558538
  2       0.094579787134
  3       0.171613879123
  4       0.299213728198
  5       0.344997506005
  6       0.175739668854
  7       0.010843965161
  8       0.003148661901
  9      -0.002290234425
 10       0.001507546201
 11      -0.001017338537
 12       0.000683850863
 13      -0.000454212925
 14       0.000302213766
 15      -0.000195556829
 16       0.000110620537
 17      -0.000043914076
 18       0.000011810149
 19      -0.000000098297
 20      -0.000000075573
 21       0.000000185490
 22       0.000000087144
 23       0.000000078187
 24      -0.000000172517
 25      -0.000000065217
 26      -0.000000059780
 27       0.000000131436
 28       0.000000067654
 29       0.000000068480
 30      -0.000000142804
 31      -0.000000088377
 32      -0.000000095667
 33       0.000000192883
 34       0.000000135583
 35       0.000000150808
 36      -0.000000299835
 37      -0.000000239341
 38      -0.000000264606
 39       0.000000525183
 40       0.000000422616
 41       0.000000455249
 42      -0.000000905699
 43      -0.000000554899
 44      -0.000000604740
 45       0.000001189686
 46       0.000000453642
 47       0.000000533610
 48      -0.000001059741
 49      -0.000000040692
 50      -0.000000035996
 51       0.000000097752
 52       0.000000006092
 53       0.000000003980
 54      -0.000000015008
 55      -0.000000010343
 56       0.000000009057
 57       0.000000013253
 58       0.000000000844
 59      -0.000000005895
 60       0.000000108466
 61      -0.000000090214
 62      -0.000000147685
 63      -0.000000016020
 64       0.000000062147
 65      -0.000000292044
 66       0.000000243503
 67       0.000000396789
 68       0.000000043326
 69      -0.000000166843
 70       0.000000608645
 71      -0.000000507678
 72      -0.000000827415
 73      -0.000000092236
 74       0.000000347211
 75      -0.000001241484
 76       0.000001035308
 77       0.000001685603
 78       0.000000191003
 79      -0.000000707933
 80       0.000001991330
 81      -0.000001661438
 82      -0.000002697989
 83      -0.000000313161
 84       0.000001134204
 85      -0.000002091795
 86       0.000001791232
 87       0.000002845173
 88       0.000000347657
 89      -0.000001161975
 90       0.000000000806
 91       0.000000002872
 92      -0.000000009657
 93       0.000000008186
 94       0.000000003355
 95       0.000000021604
 96      -0.000000019528
 97      -0.000000026872
 98      -0.000000006058
 99       0.000000011153
100      -0.000000062936
101      -0.000000133263
102      -0.000000181778
103       0.000000084219
104      -0.000000240659
105      -0.000000399030
106       0.000000107981
107       0.000000383850
108       0.000000808812
109       0.000001097200
110      -0.000000513425
111       0.000001459950
112       0.000002421325
113      -0.000000656100
114      -0.000000522624
115      -0.000001030148
116      -0.000001402469
117       0.000000681379
118      -0.000001985735
119      -0.000003195268
120       0.000000852995
121       0.000000108754
122      -0.000000503965
123       0.000000958594
124      -0.000002790036
125      -0.000004902333
126      -0.000005821596
127      -0.000000223397
128      -0.000000370750
129      -0.000000391189
130       0.000001082981
131       0.000001753268
132       0.000001844888
133      -0.000000058946
134      -0.000000312474
135      -0.000000392346
136      -0.000000033607
137      -0.000000135481
138      -0.000000216582
139       0.000000057118
140      -0.000000110026
141       0.000000216667
142       0.000000764347
143       0.000001195337
144      -0.000000322805
145       0.000000680877
146       0.000000016255
147      -0.000000005089
148      -0.000000003254
149      -0.000000000894
150      -0.000000012772
151       0.000000005274
152       0.000000002519
153       0.000000110444
154      -0.000000511459
155       0.000000971611
156      -0.000002811274
157      -0.000004906787
158      -0.000005824503
159      -0.000000250309
160       0.000000523859
161       0.000000120919
162       0.000001181412
163      -0.000002447741
164      -0.000000572724
165      -0.000000138124
166       0.000000452163
167       0.000000030798
168       0.000000137048
169       0.000000031263
170      -0.000000107607
171       0.000000144245
172       0.000000191831
173      -0.000000735758
174      -0.000000221745
175       0.000000565767
176      -0.000000814220
177      -0.000001076500
178      -0.000000005606
179       0.000000009459
180      -0.000000001879
181      -0.000000010750
182       0.000000002576
183       0.000000000349
184      -0.000000006414
185       0.000000106695
186      -0.000000494902
187       0.000000943084
188      -0.000002769590
189      -0.000004904446
190      -0.000005792011
191       0.000000560275
192      -0.000000076094
193       0.000000087281
194      -0.000002706578
195       0.000000360987
196      -0.000000444077
197       0.000000455589
198      -0.000000080078
199      -0.000000056585
200       0.000000132906
201      -0.000000080674
202      -0.000000006921
203      -0.000000213327
204       0.000000063436
205      -0.000000746812
206       0.000000478546
207      -0.000000015748
208       0.000001273363
209      -0.000000354053
210      -0.000000013616
211      -0.000000015781
212       0.000000007911
213       0.000000018042
214       0.000000007686
215      -0.000000015095
216       0.000000006644
 Sym=     1a
 Ene= -2.75684888848894E+02
 Spin= Alpha
 Occup= 1.000000
  1       0.030283166698
  2       0.038285813129
  3       0.070591597096
  4       0.145188345660
  5       0.206549586253
  6       0.093565026440
  7      -0.455756269259
  8      -0.612527331465
  9      -0.107017831816
 10      -0.003771135714
 11       0.003233932469
 12      -0.002312383125
 13       0.001697248167
 14      -0.001179091403
 15       0.000769734384
 16      -0.000437034798
 17       0.000174003847
 18      -0.000046898928
 19      -0.000000205881
 20      -0.000000682648
 21       0.000000700347
 22      -0.000000175809
 23      -0.000000907244
 24       0.000000802519
 25       0.000000020553
 26      -0.000000555869
 27       0.000000295076
 28       0.000000212438
 29       0.000000183582
 30      -0.000000428219
 31       0.000000119810
 32       0.000000132111
 33      -0.000000274926
 34      -0.000000451504
 35      -0.000000502232
 36       0.000001000840
 37       0.000000884543
 38       0.000000981472
 39      -0.000001943224
 40      -0.000001659473
 41      -0.000001776986
 42       0.000003539577
 43       0.000002268930
 44       0.000002439856
 45      -0.000004822117
 46      -0.000001782330
 47      -0.000002085991
 48       0.000004151954
 49       0.000000148895
 50       0.000000126999
 51      -0.000000358507
 52      -0.000000020905
 53      -0.000000011528
 54       0.000000051779
 55       0.000000028715
 56      -0.000000052389
 57       0.000000024287
 58       0.000000021488
 59       0.000000017663
 60      -0.000000683531
 61       0.000000593383
 62       0.000000902023
 63       0.000000105294
 64      -0.000000377031
 65       0.000000903648
 66      -0.000000770991
 67      -0.000001227924
 68      -0.000000162602
 69       0.000000500940
 70      -0.000002369356
 71       0.000001989518
 72       0.000003210903
 73       0.000000368517
 74      -0.000001342692
 75       0.000005042964
 76      -0.000004209173
 77      -0.000006843658
 78      -0.000000783575
 79       0.000002872284
 80      -0.000008167888
 81       0.000006817951
 82       0.000011061547
 83       0.000001294535
 84      -0.000004648811
 85       0.000008251214
 86      -0.000007070661
 87      -0.000011220828
 88      -0.000001378663
 89       0.000004579329
 90       0.000000031434
 91      -0.000000040096
 92      -0.000000008744
 93      -0.000000037460
 94       0.000000006622
 95      -0.000000094618
 96       0.000000084884
 97       0.000000118698
 98       0.000000025335
 99      -0.000000049357
100       0.000000264302
101       0.000000664074
102       0.000000909238
103      -0.000000366239
104       0.000001027622
105       0.000001826599
106      -0.000000500363
107      -0.000001606118
108      -0.000003419591
109      -0.000004635634
110       0.000002154178
111      -0.000006113682
112      -0.000010179486
113       0.000002760709
114       0.000002089384
115       0.000004137378
116       0.000005629741
117      -0.000002727609
118       0.000007941009
119       0.000012799318
120      -0.000003418393
121      -0.000000358712
122       0.000001824642
123      -0.000003689049
124       0.000011074812
125       0.000019219972
126       0.000022631067
127       0.000000935393
128       0.000001548264
129       0.000001632827
130      -0.000004337752
131      -0.000007027448
132      -0.000007386240
133       0.000000112871
134       0.000001059805
135       0.000001362457
136       0.000000150122
137       0.000000582344
138       0.000000930576
139      -0.000000248789
140       0.000000484392
141      -0.000000902907
142      -0.000003152127
143      -0.000004934882
144       0.000001341202
145      -0.000002827785
146      -0.000000041948
147      -0.000000005059
148      -0.000000026865
149       0.000000031062
150      -0.000000009409
151      -0.000000053341
152      -0.000000005241
153      -0.000000363928
154       0.000001850378
155      -0.000003736374
156       0.000011153956
157       0.000019230175
158       0.000022633977
159       0.000001045640
160      -0.000002185637
161      -0.000000505592
162      -0.000004733022
163       0.000009800576
164       0.000002299135
165       0.000000422488
166      -0.000001536613
167      -0.000000063875
168      -0.000000584745
169      -0.000000143779
170       0.000000457753
171      -0.000000623792
172      -0.000000827076
173       0.000003029625
174       0.000000931490
175      -0.000002329497
176       0.000003367641
177       0.000004447638
178      -0.000000003923
179      -0.000000020484
180      -0.000000028191
181       0.000000023471
182      -0.000000040560
183      -0.000000066795
184       0.000000038942
185      -0.000000352602
186       0.000001794332
187      -0.000003634635
188       0.000011004532
189       0.000019240171
190       0.000022515095
191      -0.000002344293
192       0.000000317837
193      -0.000000367491
194       0.000010847824
195      -0.000001451028
196       0.000001783244
197      -0.000001519936
198       0.000000284525
199       0.000000275387
200      -0.000000571873
201       0.000000349785
202       0.000000019840
203       0.000000930454
204      -0.000000274154
205       0.000003083638
206      -0.000001978501
207       0.000000081475
208      -0.000005276842
209       0.000001466711
210       0.000000031014
211       0.000000017245
212      -0.000000025638
213      -0.000000042407
214      -0.000000041419
215      -0.000000005796
216       0.000000000385
 Sym=     1a
 Ene= -2.46475645190461E+02
 Spin= Alpha
 Occup= 1.000000
  1       0.000000035206
  2       0.000000044839
  3       0.000000082241
  4       0.000000172428
  5       0.000000239608
  6       0.000000113734
  7      -0.000000627200
  8      -0.000000684153
  9       0.000000011277
 10      -0.000000013264
 11      -0.000000031710
 12       0.000000041435
 13      -0.000000181827
 14       0.000000552679
 15      -0.000000312338
 16      -0.000001138647
 17       0.000000487519
 18      -0.000000125568
 19      -0.159455256033
 20       0.301356983987
 21       0.082376571227
 22      -0.217962083249
 23       0.411930071064
 24       0.112601807274
 25      -0.139825082840
 26       0.264257608721
 27       0.072235342144
 28      -0.007828969098
 29       0.014796935019
 30       0.004043905744
 31      -0.002489476262
 32       0.004703519891
 33       0.001287140522
 34       0.001726129787
 35      -0.003259813956
 36      -0.000893602693
 37      -0.001047849898
 38       0.001975770400
 39       0.000544793118
 40       0.000666589088
 41      -0.001251135101
 42      -0.000350621488
 43      -0.000425369555
 44       0.000793124583
 45       0.000227293790
 46       0.000179249993
 47      -0.000343544480
 48      -0.000091808146
 49      -0.000074328418
 50       0.000143758207
 51       0.000036695561
 52       0.000024397687
 53      -0.000046997903
 54      -0.000012129325
 55      -0.000000313200
 56      -0.000000129412
 57      -0.000000185454
 58      -0.000000640288
 59      -0.000000423591
 60      -0.000000477694
 61      -0.000000933621
 62       0.000000041941
 63      -0.000001341548
 64      -0.000001326949
 65       0.000001885579
 66       0.000003468316
 67       0.000000271081
 68       0.000005447619
 69       0.000005019293
 70      -0.000004784000
 71      -0.000009062094
 72      -0.000000453647
 73      -0.000013836698
 74      -0.000013002037
 75       0.000010584570
 76       0.000020354039
 77       0.000000909667
 78       0.000030834397
 79       0.000029053838
 80      -0.000017911869
 81      -0.000034813996
 82      -0.000001470899
 83      -0.000052639818
 84      -0.000049499777
 85      -0.000004448444
 86      -0.000010140926
 87       0.000000387290
 88      -0.000014629918
 89      -0.000013739935
 90       0.000005012918
 91       0.000009848346
 92       0.000000366993
 93       0.000014943487
 94       0.000013964874
 95      -0.000001490838
 96      -0.000002917267
 97      -0.000000122138
 98      -0.000004439324
 99      -0.000004141084
100       0.000002617494
101      -0.000003386209
102       0.000001377206
103       0.000004352322
104      -0.000000000957
105       0.000001271495
106       0.000001095372
107      -0.000014049049
108       0.000026184277
109      -0.000010076698
110      -0.000025124345
111       0.000002319916
112      -0.000009074453
113      -0.000002157912
114       0.000005202896
115      -0.000006105373
116       0.000002873236
117       0.000008550385
118       0.000000101626
119       0.000002888309
120       0.000001858592
121       0.000000318847
122      -0.000001731461
123       0.000003744523
124      -0.000012730790
125      -0.000009620178
126       0.000025908647
127      -0.000003430930
128      -0.000002272363
129      -0.000003783242
130       0.000013900530
131       0.000012072674
132       0.000016907188
133       0.000005292328
134       0.000025047930
135       0.000018479264
136      -0.000000858141
137      -0.000002727227
138      -0.000001754023
139      -0.000000699668
140      -0.000001875855
141       0.000003857995
142       0.000012338128
143       0.000010927722
144       0.000000950023
145       0.000009494149
146       0.000000132147
147       0.000000779381
148      -0.000000136896
149       0.000001670587
150       0.000000580601
151      -0.000000445169
152      -0.000001045090
153      -0.000000672323
154       0.000003631257
155      -0.000007779123
156       0.000025715645
157       0.000018697511
158      -0.000053264145
159       0.000004676825
160      -0.000009541697
161      -0.000002187108
162      -0.000020998941
163       0.000042802080
164       0.000009907216
165      -0.000026838769
166       0.000052740358
167       0.000014397566
168      -0.000003048421
169      -0.000001121828
170       0.000002251652
171      -0.000003545360
172      -0.000004633849
173       0.000016045664
174       0.000005912014
175      -0.000011883623
176       0.000018671386
177       0.000024383938
178      -0.000000052785
179       0.000000118001
180      -0.000000146507
181      -0.000000179214
182       0.000000121314
183      -0.000000041331
184      -0.000000012160
185       0.000000297397
186      -0.000001623353
187       0.000003543971
188      -0.000012341075
189      -0.000008791921
190       0.000028657378
191       0.000005254994
192       0.000000844837
193       0.000001443241
194      -0.000024324593
195      -0.000001585557
196      -0.000005982984
197      -0.000030089579
198       0.000012306663
199      -0.000002597946
200       0.000001355359
201      -0.000001618286
202      -0.000000084467
203      -0.000002973508
204      -0.000001053029
205      -0.000007720607
206       0.000007667448
207       0.000000011386
208       0.000015829569
209       0.000001993153
210       0.000000430791
211      -0.000000267854
212       0.000000452620
213      -0.000000613150
214      -0.000000489746
215       0.000000366839
216       0.000001884994
 Sym=     1a
 Ene= -2.46475630881671E+02
 Spin= Alpha
 Occup= 1.000000
  1      -0.000000000715
  2      -0.000000000959
  3      -0.000000001743
  4      -0.000000004042
  5      -0.000000004522
  6      -0.000000003706
  7       0.000000027003
  8       0.000000025896
  9      -0.000000060762
 10       0.000000043105
 11      -0.000000043038
 12       0.000000055843
 13       0.000000052307
 14      -0.000000413013
 15       0.000000128064
 16       0.000001389298
 17      -0.000000468091
 18       0.000000107404
 19       0.283727722666
 20       0.100977005944
 21       0.179805577111
 22       0.387832404060
 23       0.138027201821
 24       0.245779429816
 25       0.248798743391
 26       0.088545968829
 27       0.157670175000
 28       0.013931227363
 29       0.004957876263
 30       0.008828823589
 31       0.004428512772
 32       0.001576351826
 33       0.002806064342
 34      -0.003069301519
 35      -0.001092834972
 36      -0.001944397602
 37       0.001860609838
 38       0.000663070662
 39       0.001177792569
 40      -0.001179099643
 41      -0.000421148378
 42      -0.000744684125
 43       0.000748232889
 44       0.000268026422
 45       0.000470966996
 46      -0.000318529178
 47      -0.000114005381
 48      -0.000203486279
 49       0.000134002367
 50       0.000047487573
 51       0.000085938945
 52      -0.000043918135
 53      -0.000015567539
 54      -0.000028106477
 55      -0.000000443992
 56      -0.000000230579
 57      -0.000000218831
 58       0.000000342634
 59      -0.000000029216
 60      -0.000000846598
 61      -0.000000220742
 62      -0.000001175804
 63       0.000001522139
 64      -0.000001060369
 65       0.000003644786
 66       0.000001089523
 67       0.000004339714
 68      -0.000005795282
 69       0.000003704325
 70      -0.000009051274
 71      -0.000002637167
 72      -0.000011061400
 73       0.000014711842
 74      -0.000009604446
 75       0.000020100723
 76       0.000005777490
 77       0.000024666757
 78      -0.000032847141
 79       0.000021523520
 80      -0.000034334745
 81      -0.000009706603
 82      -0.000042136753
 83       0.000056301928
 84      -0.000036870784
 85      -0.000009708427
 86      -0.000002233088
 87      -0.000012624403
 88       0.000017240076
 89      -0.000011313717
 90       0.000009825229
 91       0.000002740126
 92       0.000012062384
 93      -0.000016193878
 94       0.000010527924
 95      -0.000002921217
 96      -0.000000818900
 97      -0.000003570181
 98       0.000004795311
 99      -0.000003111958
100       0.000004107902
101       0.000001185072
102      -0.000002403243
103      -0.000000674399
104      -0.000003214468
105       0.000001453333
106      -0.000001641298
107      -0.000021610382
108      -0.000008052211
109       0.000019421615
110       0.000001659953
111       0.000022133971
112      -0.000013684370
113       0.000009226597
114       0.000007681784
115       0.000002203594
116      -0.000004535186
117      -0.000000622545
118      -0.000005668456
119       0.000002102356
120      -0.000003767608
121       0.000000569447
122      -0.000003076250
123       0.000006593648
124      -0.000021786127
125      -0.000014887255
126       0.000049720737
127      -0.000003134816
128      -0.000006235989
129      -0.000006293460
130       0.000015079798
131       0.000027443409
132       0.000028084429
133       0.000026273709
134       0.000032481089
135       0.000034195390
136      -0.000001034054
137      -0.000002248332
138      -0.000004765821
139       0.000001900875
140      -0.000002412396
141       0.000005197296
142       0.000012998531
143       0.000024326934
144      -0.000008690938
145       0.000013264714
146      -0.000000075032
147      -0.000000204993
148       0.000000398463
149      -0.000000907147
150      -0.000000374749
151      -0.000000020795
152       0.000000634029
153      -0.000000005791
154       0.000000032355
155      -0.000000073189
156       0.000000297609
157       0.000000522564
158       0.000000452052
159       0.000001666646
160       0.000000489401
161       0.000001029866
162      -0.000005228865
163      -0.000001329742
164      -0.000003107251
165       0.000009252692
166       0.000003341247
167       0.000005813151
168      -0.000000396336
169       0.000000184125
170      -0.000001199916
171       0.000001359545
172      -0.000001447878
173       0.000001425570
174      -0.000000521863
175       0.000003898783
176      -0.000004428234
177       0.000004844924
178       0.000000746730
179       0.000000723730
180      -0.000000403745
181       0.000001095102
182       0.000000342794
183      -0.000000738816
184      -0.000002015710
185      -0.000000527270
186       0.000002863197
187      -0.000006195512
188       0.000021026874
189       0.000014057619
190      -0.000051854790
191      -0.000008951063
192       0.000001683047
193      -0.000000975212
194       0.000040912869
195      -0.000006867234
196       0.000005423263
197       0.000052770040
198      -0.000004107731
199       0.000013577171
200      -0.000002814144
201       0.000000991525
202      -0.000000295328
203       0.000004684218
204      -0.000001990439
205       0.000014852111
206      -0.000006910561
207       0.000001446976
208      -0.000025316186
209       0.000009244116
210       0.000000495375
211      -0.000000356772
212       0.000000262883
213      -0.000000654761
214       0.000000099120
215       0.000000281917
216       0.000000826225
 Sym=     1a
 Ene= -2.46475534642549E+02
 Spin= Alpha
 Occup= 1.000000
  1      -0.000000036169
  2      -0.000000033910
  3      -0.000000117579
  4      -0.000000041431
  5      -0.000000531468
  6       0.000000628095
  7      -0.000001423810
  8       0.000002248516
  9      -0.000001531864
 10       0.000008149592
 11      -0.000014981234
 12       0.000023894950
 13      -0.000038875814
 14       0.000054201706
 15      -0.000036127612
 16      -0.000016385837
 17       0.000014743779
 18      -0.000003316843
 19      -0.130768204035
 20      -0.148375330082
 21       0.289674174934
 22      -0.178749943444
 23      -0.202817743732
 24       0.395962233211
 25      -0.114669535906
 26      -0.130109118806
 27       0.254012873050
 28      -0.006424380691
 29      -0.007290768655
 30       0.014232422350
 31      -0.002035197517
 32      -0.002306955547
 33       0.004506175537
 34       0.001404136921
 35       0.001589177190
 36      -0.003106621611
 37      -0.000837966692
 38      -0.000943271816
 39       0.001849144607
 40       0.000507407604
 41       0.000561838746
 42      -0.001110830288
 43      -0.000301124918
 44      -0.000324664543
 45       0.000650863432
 46       0.000159521610
 47       0.000185403088
 48      -0.000357977014
 49      -0.000073473982
 50      -0.000087785942
 51       0.000167050688
 52       0.000023437256
 53       0.000027804829
 54      -0.000053091963
 55       0.000000090529
 56      -0.000000108580
 57      -0.000000012230
 58       0.000000004424
 59      -0.000000004718
 60       0.000000557367
 61      -0.000000559191
 62      -0.000000733679
 63      -0.000000220115
 64       0.000000246332
 65      -0.000000334852
 66       0.000000488103
 67       0.000000523498
 68       0.000000633478
 69       0.000000046728
 70       0.000001321634
 71      -0.000001749364