[Molden Format]
[Title]
 Molden file created by orca_2mkl for BaseName=/home/nikolayandreadi_2125/_scratch/F2_cc/Eu_F2_cc

[Atoms] AU
Eu   1  63         -0.3533183158        -0.4576274189        -1.5772939327 
F    2   9         -1.9868070346         3.0415274406        -0.5890314154 
F    3   9          3.5150644639        -0.9222883986        -0.7116633031 
[GTO]
  1 0
s   6 1.0 
  1097819.8713740001      2094.1051919023
   487919.9428330000      -553.4936466776
   216853.3079260000      1227.4145046986
    96379.2479670000       287.0671366721
    42835.2213190000       753.5424106054
    19037.8761420000       575.9766746901
s   1 1.0 
     8461.2782850000       628.7631433054
s   1 1.0 
     3760.5681270000       342.2553045042
s   1 1.0 
     1671.3636120000       186.3001906214
s   1 1.0 
      742.8282720000       101.4089791124
s   1 1.0 
      330.1458990000        55.2000565222
s   1 1.0 
      146.7315110000        30.0471049961
s   1 1.0 
       65.2140050000        16.3555723516
s   1 1.0 
       28.9840020000         8.9028458850
s   1 1.0 
       12.8817790000         4.8460955778
s   1 1.0 
        5.7252350000         2.6378802750
s   1 1.0 
        2.5445490000         1.4358801973
s   1 1.0 
        1.1309110000         0.7815943539
s   1 1.0 
        0.5026270000         0.4254460079
s   1 1.0 
        0.2233900000         0.2315836467
s   1 1.0 
        0.0992840000         0.1260577472
s   1 1.0 
        0.0441260000         0.0686168872
s   1 1.0 
        0.0196120000         0.0373509374
p   5 1.0 
    14914.5995620000      2930.9495136540
     5965.8398250000      1201.0763570229
     2386.3359300000      1902.9439950739
      954.5343720000      1878.8141301970
      381.8137490000      1791.4157676492
p   1 1.0 
      152.7255000000       765.2961568742
p   1 1.0 
       61.0902000000       243.4470529600
p   1 1.0 
       24.4360800000        77.4425260895
p   1 1.0 
        9.7744320000        24.6351096643
p   1 1.0 
        3.9097730000         7.8366331475
p   1 1.0 
        1.5639090000         2.4928975832
p   1 1.0 
        0.6255640000         0.7930120249
p   1 1.0 
        0.2502250000         0.2522629443
p   1 1.0 
        0.1000900000         0.0802469342
p   1 1.0 
        0.0400360000         0.0255272151
p   1 1.0 
        0.0160140000         0.0081201653
d   4 1.0 
     1048.0606430000      4504.7143273632
      381.1129610000      4335.1022993005
      138.5865310000      4042.3256851319
       50.3951020000      2169.6801268913
d   1 1.0 
       18.3254920000       462.7191349861
d   1 1.0 
        6.6638150000        78.7925605433
d   1 1.0 
        2.4232060000        13.4169305260
d   1 1.0 
        0.8811660000         2.2846575564
d   1 1.0 
        0.3204240000         0.3890352011
d   1 1.0 
        0.1165180000         0.0662457271
d   1 1.0 
        0.0423700000         0.0112803453
d   1 1.0 
        0.0154070000         0.0019207760
f   4 1.0 
       29.2179750000      1158.8421481478
        9.7393250000       321.6749227643
        3.2464420000        42.1545037835
        1.0821470000         2.5534487342
f   1 1.0 
        0.3607160000         0.5749396280
f   1 1.0 
        0.1202390000         0.0485402635

  2 0
s   6 1.0 
    35479.1004410000         1.9229128581
     5318.4728983000         2.2734773358
     1210.4810975000         3.4747482552
      342.8551814000         5.2879612972
      112.0194318100         7.1666332516
       40.7147402500         7.7556346254
s   1 1.0 
       16.0396781100         5.7122450312
s   1 1.0 
        6.5038186700         2.9025947842
s   1 1.0 
        1.5440477500         0.9872011154
s   1 1.0 
        0.6122345300        -0.4932856223
s   1 1.0 
        0.2402798000         0.2445952611
p   4 1.0 
       80.2339004800         4.2755032106
       18.5940107400         4.7314752302
        5.6867902700         4.0864798013
        1.9511006300         2.2989954518
p   1 1.0 
        0.6697021100         0.8635593126
p   1 1.0 
        0.2165130000         0.2105208234
d   1 1.0 
        3.1070000000        20.7284714039
d   1 1.0 
        0.8550000000         2.1672588463
f   1 1.0 
        1.9170000000        24.6547062912

  3 0
s   6 1.0 
    35479.1004410000         1.9229128581
     5318.4728983000         2.2734773358
     1210.4810975000         3.4747482552
      342.8551814000         5.2879612972
      112.0194318100         7.1666332516
       40.7147402500         7.7556346254
s   1 1.0 
       16.0396781100         5.7122450312
s   1 1.0 
        6.5038186700         2.9025947842
s   1 1.0 
        1.5440477500         0.9872011154
s   1 1.0 
        0.6122345300        -0.4932856223
s   1 1.0 
        0.2402798000         0.2445952611
p   4 1.0 
       80.2339004800         4.2755032106
       18.5940107400         4.7314752302
        5.6867902700         4.0864798013
        1.9511006300         2.2989954518
p   1 1.0 
        0.6697021100         0.8635593126
p   1 1.0 
        0.2165130000         0.2105208234
d   1 1.0 
        3.1070000000        20.7284714039
d   1 1.0 
        0.8550000000         2.1672588463
f   1 1.0 
        1.9170000000        24.6547062912

[5D]
[7F]
[9G]
[MO]
 Sym=     1a
 Ene= -1.78975909025485E+03
 Spin= Alpha
 Occup= 1.000000
  1      -0.085359220205
  2      -0.096810811166
  3      -0.173193724052
  4      -0.299636885390
  5      -0.342337196710
  6      -0.173493330849
  7      -0.010395947163
  8      -0.003200693728
  9       0.002329250975
 10      -0.001535018521
 11       0.001033268165
 12      -0.000692153362
 13       0.000456479322
 14      -0.000299462230
 15       0.000193278127
 16      -0.000114400144
 17       0.000046807186
 18      -0.000012424393
 19       0.000000022312
 20       0.000000039339
 21       0.000000019433
 22      -0.000000105346
 23      -0.000000147387
 24      -0.000000086741
 25       0.000000086621
 26       0.000000121233
 27       0.000000071884
 28      -0.000000186589
 29      -0.000000255863
 30      -0.000000154873
 31       0.000000329017
 32       0.000000449190
 33       0.000000273322
 34      -0.000000557591
 35      -0.000000760167
 36      -0.000000463497
 37       0.000000985566
 38       0.000001345179
 39       0.000000820202
 40      -0.000001640809
 41      -0.000002245019
 42      -0.000001367991
 43       0.000002295985
 44       0.000003136640
 45       0.000001912401
 46      -0.000003535292
 47      -0.000004813302
 48      -0.000002937963
 49       0.000000650853
 50       0.000000883767
 51       0.000000539896
 52      -0.000000130012
 53      -0.000000177142
 54      -0.000000108092
 55       0.000000216340
 56      -0.000000113265
 57      -0.000000175188
 58      -0.000000031360
 59       0.000000087495
 60      -0.000000273730
 61       0.000000112036
 62       0.000000177379
 63       0.000000060236
 64      -0.000000169517
 65       0.000000386639
 66      -0.000000116580
 67      -0.000000195352
 68      -0.000000109222
 69       0.000000319692
 70      -0.000000658505
 71       0.000000160986
 72       0.000000280997
 73       0.000000210940
 74      -0.000000619357
 75       0.000001196631
 76      -0.000000265884
 77      -0.000000475906
 78      -0.000000398761
 79       0.000001178600
 80      -0.000001789236
 81       0.000000377633
 82       0.000000685397
 83       0.000000610041
 84      -0.000001806483
 85       0.000003459910
 86      -0.000000689500
 87      -0.000001261244
 88      -0.000001226374
 89       0.000003596674
 90      -0.000000371843
 91       0.000000099788
 92       0.000000167902
 93       0.000000114015
 94      -0.000000325794
 95       0.000000062440
 96      -0.000000019004
 97      -0.000000031170
 98      -0.000000017391
 99       0.000000049335
100       0.000000113466
101       0.000000050131
102       0.000000057389
103      -0.000000017777
104       0.000000080377
105       0.000000249835
106      -0.000000080227
107      -0.000000557221
108      -0.000000246258
109      -0.000000283782
110       0.000000088292
111      -0.000000400369
112      -0.000001235482
113       0.000000395947
114       0.000001238128
115       0.000000566964
116       0.000000643955
117      -0.000000223923
118       0.000000962806
119       0.000002864022
120      -0.000000918105
121      -0.000000136967
122       0.000000627862
123      -0.000001173224
124       0.000003141525
125       0.000005439443
126       0.000008337526
127       0.000000269127
128      -0.000000626457
129      -0.000000183290
130      -0.000001033521
131       0.000002404989
132       0.000000703573
133       0.000000801668
134      -0.000002529242
135      -0.000000817786
136      -0.000000173411
137      -0.000000059229
138       0.000000152225
139      -0.000000190388
140      -0.000000248547
141       0.000000749395
142       0.000000281921
143      -0.000000667591
144       0.000000869625
145       0.000001104154
146      -0.000000074356
147       0.000000031869
148      -0.000000076200
149      -0.000000062714
150      -0.000000069231
151      -0.000000143469
152       0.000000045630
153      -0.000000137449
154       0.000000629857
155      -0.000001176172
156       0.000003139296
157       0.000005422243
158       0.000008325221
159      -0.000000686834
160       0.000000061455
161      -0.000000162316
162       0.000002618343
163      -0.000000234120
164       0.000000618847
165      -0.000002688109
166      -0.000000018213
167      -0.000000741310
168      -0.000000183590
169       0.000000145002
170      -0.000000005653
171       0.000000309695
172      -0.000000089112
173       0.000000788172
174      -0.000000636518
175       0.000000046562
176      -0.000001380933
177       0.000000379101
178      -0.000000069335
179      -0.000000094745
180       0.000000008093
181       0.000000083587
182      -0.000000017211
183      -0.000000150457
184       0.000000048648
 Sym=     1a
 Ene= -2.98786695396700E+02
 Spin= Alpha
 Occup= 1.000000
  1      -0.031728498034
  2      -0.039607973206
  3      -0.071909251686
  4      -0.146780205888
  5      -0.205772399206
  6      -0.087373089154
  7       0.464208302076
  8       0.606551028814
  9       0.101197076636
 10       0.003996143697
 11      -0.003481381899
 12       0.002474274287
 13      -0.001782415810
 14       0.001216046040
 15      -0.000791543445
 16       0.000471236162
 17      -0.000193398446
 18       0.000051417285
 19       0.000004016354
 20       0.000005072052
 21       0.000003208933
 22       0.000006295883
 23       0.000008030368
 24       0.000005057287
 25       0.000005183471
 26       0.000006571284
 27       0.000004165580
 28      -0.000000262000
 29      -0.000000513897
 30      -0.000000256329
 31      -0.000000360131
 32      -0.000000478631
 33      -0.000000299751
 34       0.000001963057
 35       0.000002664893
 36       0.000001629931
 37      -0.000003900043
 38      -0.000005320939
 39      -0.000003247102
 40       0.000006626404
 41       0.000009070448
 42       0.000005528360
 43      -0.000009503005
 44      -0.000012990215
 45      -0.000007918822
 46       0.000014532365
 47       0.000019780738
 48       0.000012075488
 49      -0.000002656203
 50      -0.000003605108
 51      -0.000002202871
 52       0.000000529548
 53       0.000000721193
 54       0.000000440195
 55      -0.000027735673
 56       0.000015803728
 57       0.000024101440
 58       0.000003292452
 59      -0.000008649761
 60       0.000000070612
 61      -0.000000151679
 62      -0.000000255238
 63       0.000000106027
 64      -0.000000191855
 65       0.000000163029
 66      -0.000000192990
 67      -0.000000280884
 68       0.000000051911
 69      -0.000000157041
 70       0.000002038152
 71      -0.000000456536
 72      -0.000000826115
 73      -0.000000668628
 74       0.000002007466
 75      -0.000004789961
 76       0.000001067146
 77       0.000001911710
 78       0.000001589451
 79      -0.000004708624
 80       0.000007394733
 81      -0.000001558443
 82      -0.000002833429
 83      -0.000002516548
 84       0.000007466755
 85      -0.000014187950
 86       0.000002818941
 87       0.000005160525
 88       0.000005035656
 89      -0.000014768478
 90       0.000001496410
 91      -0.000000402761
 92      -0.000000676776
 93      -0.000000458498
 94       0.000001308256
 95      -0.000000246476
 96       0.000000075561
 97       0.000000123654
 98       0.000000068341
 99      -0.000000193406
100      -0.000000572704
101      -0.000000249498
102      -0.000000277152
103       0.000000072131
104      -0.000000371726
105      -0.000001199309
106       0.000000401948
107       0.000002448333
108       0.000001078446
109       0.000001241021
110      -0.000000378891
111       0.000001737353
112       0.000005390626
113      -0.000001732506
114      -0.000005148999
115      -0.000002356425
116      -0.000002675031
117       0.000000927119
118      -0.000003993786
119      -0.000011893071
120       0.000003815088
121       0.000000465022
122      -0.000002341131
123       0.000004626753
124      -0.000012814332
125      -0.000022116082
126      -0.000034120948
127      -0.000001138084
128       0.000002645939
129       0.000000773750
130       0.000004255367
131      -0.000009901443
132      -0.000002896541
133      -0.000003250007
134       0.000010308519
135       0.000003337745
136       0.000000740810
137       0.000000256355
138      -0.000000651858
139       0.000000819826
140       0.000001065409
141      -0.000003152504
142      -0.000001190244
143       0.000002810229
144      -0.000003666387
145      -0.000004649631
146       0.000000322246
147      -0.000000140022
148       0.000000332479
149       0.000000271838
150       0.000000303145
151       0.000000626600
152      -0.000000196567
153       0.000000466400
154      -0.000002347571
155       0.000004636369
156      -0.000012801584
157      -0.000022044926
158      -0.000034077440
159       0.000002899482
160      -0.000000260355
161       0.000000684814
162      -0.000010776854
163       0.000000962572
164      -0.000002547544
165       0.000010955370
166       0.000000091905
167       0.000003028396
168       0.000000783461
169      -0.000000621078
170       0.000000026821
171      -0.000001328560
172       0.000000378989
173      -0.000003313790
174       0.000002679370
175      -0.000000199181
176       0.000005815155
177      -0.000001591841
178       0.000000299527
179       0.000000412197
180      -0.000000035984
181      -0.000000362968
182       0.000000076475
183       0.000000653623
184      -0.000000213619
 Sym=     1a
 Ene= -2.66621212580719E+02
 Spin= Alpha
 Occup= 1.000000
  1       0.000000016268
  2       0.000000018441
  3       0.000000043881
  4       0.000000054692
  5       0.000000166129
  6      -0.000000119853
  7      -0.000000014756
  8      -0.000000425303
  9       0.000000304016
 10      -0.000001381993
 11       0.000002522382
 12      -0.000004023172
 13       0.000006408877
 14      -0.000008706910
 15       0.000006539957
 16       0.000000179571
 17      -0.000001550194
 18       0.000000368713
 19      -0.276050715619
 20       0.219789700330
 21       0.016127401589
 22      -0.374775272100
 23       0.298393722204
 24       0.021895182342
 25      -0.238956156498
 26       0.190255003051
 27       0.013960146759
 28      -0.012781781496
 29       0.010176844109
 30       0.000746784949
 31      -0.004324274985
 32       0.003442536464
 33       0.000252404051
 34       0.002989796010
 35      -0.002379309171
 36      -0.000174066615
 37      -0.001812937041
 38       0.001441345331
 39       0.000104806173
 40       0.001136898482
 41      -0.000901699303
 42      -0.000064568304
 43      -0.000708983888
 44       0.000560534468
 45       0.000039313198
 46       0.000354445387
 47      -0.000281601161
 48      -0.000020382781
 49      -0.000147338846
 50       0.000117894755
 51       0.000008914000
 52       0.000047177404
 53      -0.000037734287
 54      -0.000002846224
 55       0.000000036061
 56      -0.000001024329
 57       0.000001030191
 58      -0.000002811773
 59      -0.000000664346
 60       0.000000013470
 61      -0.000000374355
 62       0.000000257147
 63      -0.000000843657
 64      -0.000000310312
 65       0.000000068547
 66       0.000002790868
 67      -0.000002273832
 68       0.000006887629
 69       0.000002432156
 70      -0.000000136860
 71      -0.000007274905
 72       0.000005945680
 73      -0.000017968330
 74      -0.000006243554
 75       0.000000307020
 76       0.000015617432
 77      -0.000012774129
 78       0.000038585416
 79       0.000013416250
 80      -0.000000511534
 81      -0.000023685678
 82       0.000019400757
 83      -0.000058529348
 84      -0.000020399814
 85       0.000000090651
 86       0.000002905924
 87      -0.000002495506
 88       0.000007332505
 89       0.000002483312
 90       0.000000082714
 91       0.000005344524
 92      -0.000004415191
 93       0.000013283697
 94       0.000004533192
 95      -0.000000025481
 96      -0.000001657488
 97       0.000001370877
 98      -0.000004122120
 99      -0.000001404719
100       0.000000214743
101      -0.000002662715
102       0.000001879533
103       0.000002432901
104       0.000000936940
105       0.000000286835
106       0.000000757853
107      -0.000001664762
108       0.000017413756
109      -0.000012434864
110      -0.000017667804
111      -0.000007103313
112      -0.000002184815
113      -0.000003291009
114       0.000000831592
115      -0.000008506266
116       0.000006129019
117       0.000006675401
118       0.000002844144
119       0.000001834524
120       0.000004120143
121      -0.000001288764
122       0.000006645122
123      -0.000013215993
124       0.000035017992
125       0.000036186300
126       0.000007358535
127       0.000004687521
128      -0.000011621953
129      -0.000003476668
130      -0.000017014518
131       0.000040376728
132       0.000011887043
133      -0.000012432778
134       0.000017230990
135       0.000003700951
136      -0.000003757750
137      -0.000001697229
138       0.000004061896
139      -0.000005825783
140      -0.000005405267
141       0.000015368243
142       0.000006850189
143      -0.000015943443
144       0.000022662584
145       0.000022481562
146      -0.000001577955
147       0.000000381936
148      -0.000001318394
149      -0.000001794222
150      -0.000001307766
151      -0.000002356469
152       0.000001859109
153       0.000001202441
154      -0.000006197005
155       0.000012313705
156      -0.000032483682
157      -0.000033330233
158      -0.000006763959
159       0.000011734441
160      -0.000000604827
161       0.000002964187
162      -0.000040704611
163       0.000002916590
164      -0.000009937652
165      -0.000018811344
166       0.000006813427
167      -0.000002305763
168       0.000003678461
169      -0.000003825621
170       0.000000267924
171      -0.000007559074
172       0.000000599301
173      -0.000014988598
174       0.000014776429
175      -0.000001211326
176       0.000030004625
177      -0.000003671933
178       0.000001468705
179       0.000001413506
180       0.000000114828
181      -0.000002065620
182      -0.000000076418
183       0.000002975486
184       0.000000416665
 Sym=     1a
 Ene= -2.66620618600212E+02
 Spin= Alpha
 Occup= 1.000000
  1       0.000000774623
  2       0.000000935225
  3       0.000001885477
  4       0.000003233524
  5       0.000006158606
  6      -0.000000868013
  7      -0.000008155546
  8      -0.000017631394
  9       0.000007221674
 10      -0.000025396541
 11       0.000045719916
 12      -0.000072596866
 13       0.000113708147
 14      -0.000151357728
 15       0.000116587810
 16      -0.000008062937
 17      -0.000025788026
 18       0.000006458758
 19       0.200364425329
 20       0.239541194414
 21       0.165064235429
 22       0.272023109854
 23       0.325211411489
 24       0.224098311595
 25       0.173436658431
 26       0.207347941540
 27       0.142880471750
 28       0.009277666356
 29       0.011091811896
 30       0.007643267316
 31       0.003135092107
 32       0.003747501589
 33       0.002582271197
 34      -0.002159526418
 35      -0.002580172787
 36      -0.001777891568
 37       0.001296433936
 38       0.001546986214
 39       0.001065865056
 40      -0.000792187542
 41      -0.000942211255
 42      -0.000648985367
 43       0.000476693231
 44       0.000564382901
 45       0.000388534525
 46      -0.000254319821
 47      -0.000303155080
 48      -0.000208666428
 49       0.000113060566
 50       0.000135960895
 51       0.000093672722
 52      -0.000035981707
 53      -0.000043252936
 54      -0.000029802983
 55      -0.000001449897
 56       0.000001828666
 57       0.000002372270
 58      -0.000000316520
 59       0.000001795848
 60      -0.000000165746
 61      -0.000000405560
 62      -0.000000585065
 63       0.000000482608
 64      -0.000001236061
 65       0.000003061202
 66      -0.000000982172
 67      -0.000001293292
 68      -0.000001295010
 69       0.000002571783
 70      -0.000007520025
 71       0.000002355867
 72       0.000003033188
 73       0.000003298219
 74      -0.000006435256
 75       0.000016077483
 76      -0.000005080493
 77      -0.000006564593
 78      -0.000006975089
 79       0.000013605948
 80      -0.000024560739
 81       0.000007675259
 82       0.000009968939
 83       0.000010637797
 84      -0.000020945777
 85       0.000006219891
 86      -0.000002500000
 87      -0.000003458993
 88      -0.000002008993
 89       0.000003969907
 90       0.000004809836
 91      -0.000002001963
 92      -0.000002541094
 93      -0.000001829018
 94       0.000003035340
 95      -0.000001533798
 96       0.000000646702
 97       0.000000823668
 98       0.000000573648
 99      -0.000000947593
100       0.000000850998
101       0.000000853673
102       0.000000717775
103      -0.000000529942
104       0.000001882629
105       0.000003843954
106      -0.000001444249
107      -0.000011484793
108      -0.000005948589
109      -0.000005050747
110       0.000002614959
111      -0.000007358204
112      -0.000024458723
113       0.000008109437
114       0.000006934120
115       0.000003296975
116       0.000002828115
117      -0.000001198946
118       0.000003678652
119       0.000013255487
120      -0.000004505093
121      -0.000000813666
122       0.000004188270
123      -0.000008293207
124       0.000021825499
125       0.000024404047
126       0.000011937665
127       0.000004498510
128      -0.000006401694
129      -0.000001327167
130      -0.000014139087
131       0.000022659588
132       0.000005261685
133       0.000001425342
134       0.000009946327
135       0.000004769622
136      -0.000002789685
137      -0.000001124929
138       0.000001172698
139      -0.000001528614
140      -0.000005148932
141       0.000010595577
142       0.000004335510
143      -0.000005739695
144       0.000007653341
145       0.000018734170
146      -0.000000363187
147       0.000001103546
148      -0.000001377326
149       0.000000493382
150      -0.000000943006
151      -0.000002598167
152      -0.000001664240
153      -0.000000956809
154       0.000004923931
155      -0.000009746268
156       0.000025568389
157       0.000028248392
158       0.000013242379
159      -0.000008887326
160       0.000002337830
161      -0.000001400078
162       0.000030647449
163      -0.000006654981
164       0.000005475555
165       0.000010921040
166       0.000003714272
167       0.000004806517
168      -0.000003319068
169       0.000001578222
170      -0.000000620152
171       0.000005232992
172      -0.000003326564
173       0.000012709972
174      -0.000007224481
175       0.000002095389
176      -0.000020940537
177       0.000011002355
178      -0.000000385555
179      -0.000001896064
180       0.000000660613
181       0.000000244421
182      -0.000000887616
183      -0.000001531403
184       0.000002856578
 Sym=     1a
 Ene= -2.66611070320510E+02
 Spin= Alpha
 Occup= 1.000000
  1      -0.000000019531
  2      -0.000000023342
  3      -0.000000048289
  4      -0.000000078889
  5      -0.000000161645
  6       0.000000040206
  7       0.000000164097
  8       0.000000454214
  9      -0.000000170169
 10       0.000000779118
 11      -0.000001421655
 12       0.000002243141
 13      -0.000003513981
 14       0.000004686268
 15      -0.000003627611
 16       0.000000287888
 17       0.000000790114
 18      -0.000000198886
 19      -0.091773603052
 20      -0.138150457303
 21       0.311883805760
 22      -0.124597279677
 23      -0.187561230614
 24       0.423432074609
 25      -0.079431103820
 26      -0.119570814924
 27       0.269939085431
 28      -0.004244166068
 29      -0.006388902392
 30       0.014423550902
 31      -0.001436950091
 32      -0.002163129292
 33       0.004882970340
 34       0.000985705010
 35       0.001483900091
 36      -0.003349076525
 37      -0.000587337667
 38      -0.000884289800
 39       0.001994608962
 40       0.000351312974
 41       0.000529098601
 42      -0.001191505266
 43      -0.000204702987
 44      -0.000308442341
 45       0.000692845525
 46       0.000113140878
 47       0.000170337604
 48      -0.000383648562
 49      -0.000053322812
 50      -0.000080222875
 51       0.000181471483
 52       0.000016957572
 53       0.000025513900
 54      -0.000057712470
 55       0.000002447400
 56       0.000001296744
 57       0.000001564592
 58       0.000000453707
 59      -0.000001364178
 60      -0.000000867025
 61      -0.000000441408
 62      -0.000000612654
 63      -0.000000195389
 64       0.000000527045
 65      -0.000000524719
 66      -0.000000203577
 67      -0.000000267679
 68      -0.000000075277
 69       0.000000146301
 70       0.000000757939
 71       0.000000231984
 72       0.000000263983
 73       0.000000068398
 74      -0.000000059979
 75      -0.000001625779
 76      -0.000000492587
 77      -0.000000565224
 78      -0.000000153903
 79       0.000000145745
 80       0.000002429364
 81       0.000000729611
 82       0.000000824296
 83       0.000000220942
 84      -0.000000189396
 85      -0.000002154263
 86      -0.000000973200
 87      -0.000001273133
 88      -0.000000354789
 89       0.000000918486
 90      -0.000001334342
 91      -0.000000596614
 92      -0.000000749774
 93      -0.000000225909
 94       0.000000538445
 95       0.000000440683
 96       0.000000197536
 97       0.000000249596
 98       0.000000075070
 99      -0.000000180376
100      -0.000001345419
101       0.000001402957
102       0.000002174167
103       0.000000464242
104      -0.000001216221
105       0.000000169968
106      -0.000000040675
107      -0.000000843636
108       0.000000337780
109       0.000000654459
110       0.000000433713
111      -0.000001024282
112       0.000001500880
113      -0.000000439988
114       0.000002588052
115      -0.000001121387
116      -0.000001928187
117      -0.000001037953
118       0.000002735974
119      -0.000001921052
120       0.000000524360
121       0.000000029582
122      -0.000000152314
123       0.000000301929
124      -0.000000796930
125      -0.000000887448
126      -0.000000417654
127      -0.000000640351
128      -0.000000491529
129       0.000001832325
130       0.000001669163
131       0.000000922886
132      -0.000004505994
133      -0.000002158120
134      -0.000003589482
135       0.000007733268
136      -0.000001020908
137       0.000001336335
138      -0.000002107828
139      -0.000001190398
140       0.000000352061
141       0.000002809286
142      -0.000003842036
143       0.000006088782
144       0.000003263958
145      -0.000001154708
146       0.000001288023
147       0.000000594778
148      -0.000001792607
149       0.000000868781
150       0.000001828155
151      -0.000000293342
152       0.000001336969
153       0.000000025172
154      -0.000000129504
155       0.000000256266
156      -0.000000672764
157      -0.000000757571
158      -0.000000402067
159      -0.000000250265
160      -0.000000792877
161       0.000001797243
162       0.000000360663
163       0.000001934459
164      -0.000004380020
165      -0.000002407312
166      -0.000003361882
167       0.000007727041
168      -0.000000882213
169      -0.000002444902
170       0.000000587437
171       0.000000705349
172       0.000001057887
173       0.000002419785
174       0.000007006646
175      -0.000001672589
176      -0.000001842368
177      -0.000003043496
178       0.000001406572
179      -0.000001671895
180      -0.000000055087
181      -0.000001873208
182       0.000000937551
183      -0.000000967866
184      -0.000001011855
 Sym=     1a
 Ene= -6.80334533984272E+01
 Spin= Alpha
 Occup= 1.000000
  1      -0.014748616042
  2      -0.018643596586
  3      -0.034182326685
  4      -0.070893186731
  5      -0.105093834366
  6      -0.041170480744
  7       0.349211960533
  8       0.695633125012
  9      -0.387920479616
 10      -0.927986562968
 11      -0.060077147170
 12      -0.033352634661
 13       0.022567979258
 14      -0.015434731833
 15       0.010249955073
 16      -0.006129002879
 17       0.002526590459
 18      -0.000673283064
 19       0.000010883172
 20       0.000012230136
 21       0.000008289126
 22       0.000016395645
 23       0.000018457577
 24       0.000012491506
 25       0.000005785509
 26       0.000007029570
 27       0.000004585176
 28      -0.000049910135
 29      -0.000057804311
 30      -0.000038485979
 31      -0.000014658937
 32      -0.000013562642
 33      -0.000010384231
 34      -0.000023997886
 35      -0.000034185765
 36      -0.000020400175
 37       0.000046086085
 38       0.000063659464
 39       0.000038601512
 40      -0.000085263813
 41      -0.000117228206
 42      -0.000071277800
 43       0.000121714019
 44       0.000166732811
 45       0.000101556406
 46      -0.000187222181
 47      -0.000255064172
 48      -0.000155646893
 49       0.000034396060
 50       0.000046745092
 51       0.000028542289
 52      -0.000006841652
 53      -0.000009336731
 54      -0.000005692172