[Molden Format]
[Title]
 Molden file created by orca_2mkl for BaseName=/home/smirnovaanastasia2304_2125/_scratch/HERBD/Dy_OH_cc

[Atoms] AU
Dy   1  66         -0.2183673034         0.4144887508        -0.4696404080 
O    2   8         -1.8734196871         3.7749944039        -0.2113961037 
O    3   8         -1.8441346012        -2.3902937998        -2.3574371315 
O    4   8          2.9715697792        -0.2637830916         1.3660905811 
H    5   1          4.5012085983        -0.5968624405         2.2632531810 
H    6   1         -2.6671934805         5.3872407112        -0.0499719179 
H    7   1         -2.6297202113        -3.7505186710        -3.2443196212 
[GTO]
  1 0
s   6 1.0 
  1205955.4869470000      2343.1624566555
   535980.2164210000      -627.7994472729
   238213.4295200000      1364.0035146170
   105872.6353420000       302.4256254711
    47054.5045970000       818.7689739381
    20913.1131540000       608.0650635993
s   1 1.0 
     9294.7169570000       674.6635063570
s   1 1.0 
     4130.9853140000       367.2402974633
s   1 1.0 
     1835.9934730000       199.9002981809
s   1 1.0 
      815.9970990000       108.8119399830
s   1 1.0 
      362.6653770000        59.2297179326
s   1 1.0 
      161.1846120000        32.2405747875
s   1 1.0 
       71.6376050000        17.5495459929
s   1 1.0 
       31.8389360000         9.5527629667
s   1 1.0 
       14.1506380000         5.1998654726
s   1 1.0 
        6.2891720000         2.8304481031
s   1 1.0 
        2.7951880000         1.5407009828
s   1 1.0 
        1.2423060000         0.8386515023
s   1 1.0 
        0.5521360000         0.4565040562
s   1 1.0 
        0.2453940000         0.2484895028
s   1 1.0 
        0.1090640000         0.1352605530
s   1 1.0 
        0.0484730000         0.0736266459
s   1 1.0 
        0.0215430000         0.0400764947
p   5 1.0 
    16500.5200280000      3551.8560429283
     6600.2080110000      1399.7999583687
     2640.0832040000      2214.2919302472
     1056.0332820000      2141.5505502747
      422.4133130000      2025.6781866708
p   1 1.0 
      168.9653250000       868.3345329533
p   1 1.0 
       67.5861300000       276.2244147341
p   1 1.0 
       27.0344520000        87.8692766435
p   1 1.0 
       10.8137810000        27.9519461152
p   1 1.0 
        4.3255120000         8.8917447952
p   1 1.0 
        1.7302050000         2.8285381540
p   1 1.0 
        0.6920820000         0.8997814396
p   1 1.0 
        0.2768330000         0.2862281950
p   1 1.0 
        0.1107330000         0.0910513565
p   1 1.0 
        0.0442930000         0.0289640280
p   1 1.0 
        0.0177170000         0.0092135674
d   4 1.0 
     1185.0486620000      5578.8882618905
      430.9267860000      5315.6245441556
      156.7006500000      4970.6577614337
       56.9820540000      2696.5017083068
d   1 1.0 
       20.7207470000       573.6929957731
d   1 1.0 
        7.5348170000        97.6893734623
d   1 1.0 
        2.7399330000        16.6347004211
d   1 1.0 
        0.9963390000         2.8325824609
d   1 1.0 
        0.3623050000         0.4823365324
d   1 1.0 
        0.1317470000         0.0821327509
d   1 1.0 
        0.0479080000         0.0139856983
d   1 1.0 
        0.0174210000         0.0023814857
f   4 1.0 
       33.8369440000      1676.3832547388
       11.2789810000       461.3524932850
        3.7596600000        58.3481478782
        1.2532200000         3.4646432581
f   1 1.0 
        0.4177400000         0.7999055676
f   1 1.0 
        0.1392470000         0.0675333410

  2 0
s   6 1.0 
    27032.3826310000         1.4645050749
     4052.3871392000         1.8244031008
      922.3272271000         2.8547160967
      261.2407098900         4.3654874290
       85.3546413500         5.8940772662
       31.0350352400         6.2963020147
s   1 1.0 
       12.2608607300         4.6698272139
s   1 1.0 
        4.9987076000         2.3826123703
s   1 1.0 
        1.1703108200         0.8019291632
s   1 1.0 
        0.4647474100        -0.4011648063
s   1 1.0 
        0.1850453600         0.2010799377
p   4 1.0 
       63.2749548000         3.0898340730
       14.6270493800         3.3923831935
        4.4501223500         2.9482801524
        1.5275799600         1.7113350234
p   1 1.0 
        0.5293511800         0.6436057935
p   1 1.0 
        0.1747842100         0.1610897223
d   1 1.0 
        2.3140000000        12.3767310624
d   1 1.0 
        0.6450000000         1.3234257612
f   1 1.0 
        1.4280000000        12.7097950062

  3 0
s   6 1.0 
    27032.3826310000         1.4645050749
     4052.3871392000         1.8244031008
      922.3272271000         2.8547160967
      261.2407098900         4.3654874290
       85.3546413500         5.8940772662
       31.0350352400         6.2963020147
s   1 1.0 
       12.2608607300         4.6698272139
s   1 1.0 
        4.9987076000         2.3826123703
s   1 1.0 
        1.1703108200         0.8019291632
s   1 1.0 
        0.4647474100        -0.4011648063
s   1 1.0 
        0.1850453600         0.2010799377
p   4 1.0 
       63.2749548000         3.0898340730
       14.6270493800         3.3923831935
        4.4501223500         2.9482801524
        1.5275799600         1.7113350234
p   1 1.0 
        0.5293511800         0.6436057935
p   1 1.0 
        0.1747842100         0.1610897223
d   1 1.0 
        2.3140000000        12.3767310624
d   1 1.0 
        0.6450000000         1.3234257612
f   1 1.0 
        1.4280000000        12.7097950062

  4 0
s   6 1.0 
    27032.3826310000         1.4645050749
     4052.3871392000         1.8244031008
      922.3272271000         2.8547160967
      261.2407098900         4.3654874290
       85.3546413500         5.8940772662
       31.0350352400         6.2963020147
s   1 1.0 
       12.2608607300         4.6698272139
s   1 1.0 
        4.9987076000         2.3826123703
s   1 1.0 
        1.1703108200         0.8019291632
s   1 1.0 
        0.4647474100        -0.4011648063
s   1 1.0 
        0.1850453600         0.2010799377
p   4 1.0 
       63.2749548000         3.0898340730
       14.6270493800         3.3923831935
        4.4501223500         2.9482801524
        1.5275799600         1.7113350234
p   1 1.0 
        0.5293511800         0.6436057935
p   1 1.0 
        0.1747842100         0.1610897223
d   1 1.0 
        2.3140000000        12.3767310624
d   1 1.0 
        0.6450000000         1.3234257612
f   1 1.0 
        1.4280000000        12.7097950062

  5 0
s   3 1.0 
       34.0613410000         0.2556300129
        5.1235746000         0.4613599287
        1.1646626000         0.6811215012
s   1 1.0 
        0.3272304100         0.3083545312
s   1 1.0 
        0.1030724100         0.1296483265
p   1 1.0 
        0.8000000000         1.0784563492

  6 0
s   3 1.0 
       34.0613410000         0.2556300129
        5.1235746000         0.4613599287
        1.1646626000         0.6811215012
s   1 1.0 
        0.3272304100         0.3083545312
s   1 1.0 
        0.1030724100         0.1296483265
p   1 1.0 
        0.8000000000         1.0784563492

  7 0
s   3 1.0 
       34.0613410000         0.2556300129
        5.1235746000         0.4613599287
        1.1646626000         0.6811215012
s   1 1.0 
        0.3272304100         0.3083545312
s   1 1.0 
        0.1030724100         0.1296483265
p   1 1.0 
        0.8000000000         1.0784563492

[5D]
[7F]
[9G]
[MO]
 Sym=     1a
 Ene= -1.98371170202939E+03
 Spin= Alpha
 Occup= 1.000000
  1       0.090385328367
  2       0.100327704387
  3       0.175631385974
  4       0.300263391232
  5       0.338092576552
  6       0.169989334917
  7       0.009705367871
  8       0.003291781059
  9      -0.002398447712
 10       0.001588127403
 11      -0.001072966434
 12       0.000727693003
 13      -0.000496805204
 14       0.000355555427
 15      -0.000290281824
 16       0.000252035720
 17      -0.000048626863
 18       0.000012490647
 19       0.000000014691
 20       0.000000032027
 21      -0.000000041706
 22      -0.000000007717
 23      -0.000000016371
 24       0.000000038920
 25       0.000000011628
 26       0.000000015455
 27      -0.000000030907
 28      -0.000000017875
 29      -0.000000015905
 30       0.000000033816
 31       0.000000029491
 32       0.000000020680
 33      -0.000000046667
 34      -0.000000050870
 35      -0.000000032432
 36       0.000000074528
 37       0.000000091519
 38       0.000000059753
 39      -0.000000137646
 40      -0.000000166509
 41      -0.000000118095
 42       0.000000272779
 43       0.000000331871
 44       0.000000215740
 45      -0.000000520263
 46      -0.000000835878
 47      -0.000001202595
 48       0.000002122512
 49       0.000000098977
 50       0.000000153604
 51      -0.000000255192
 52      -0.000000023720
 53      -0.000000047878
 54       0.000000073379
 55      -0.000000183236
 56       0.000000220556
 57       0.000000099811
 58      -0.000000043111
 59      -0.000000093532
 60       0.000000300793
 61      -0.000000395219
 62      -0.000000207840
 63       0.000000085971
 64       0.000000154548
 65      -0.000000523991
 66       0.000000717764
 67       0.000000400064
 68      -0.000000162628
 69      -0.000000270713
 70       0.000001006936
 71      -0.000001401290
 72      -0.000000797090
 73       0.000000321883
 74       0.000000521078
 75      -0.000002068975
 76       0.000002893988
 77       0.000001654495
 78      -0.000000665690
 79      -0.000001072312
 80       0.000003939762
 81      -0.000005518353
 82      -0.000003154686
 83       0.000001266680
 84       0.000002045069
 85      -0.000017409558
 86       0.000024422557
 87       0.000013968780
 88      -0.000005588994
 89      -0.000009013297
 90       0.000000609429
 91      -0.000000787077
 92      -0.000000465331
 93       0.000000243640
 94       0.000000345718
 95      -0.000000196918
 96       0.000000258014
 97       0.000000155941
 98      -0.000000076627
 99      -0.000000106273
100      -0.000000029808
101       0.000000083898
102      -0.000000193521
103       0.000000265391
104      -0.000000289534
105      -0.000000481777
106       0.000000131447
107       0.000000197743
108      -0.000000545307
109       0.000001272218
110      -0.000001746024
111       0.000001894759
112       0.000003160542
113      -0.000000864564
114      -0.000000996482
115       0.000002809734
116      -0.000006710539
117       0.000009160919
118      -0.000009895996
119      -0.000016573971
120       0.000004526763
121       0.000000263032
122      -0.000001216177
123       0.000002308366
124      -0.000007418697
125      -0.000016871696
126      -0.000047923717
127      -0.000000353076
128       0.000000722147
129       0.000000060977
130       0.000001805396
131      -0.000003679175
132      -0.000000299935
133      -0.000011498221
134       0.000023319086
135       0.000002055467
136       0.000000178241
137      -0.000000177444
138      -0.000000120629
139       0.000000089829
140       0.000000133864
141      -0.000001556026
142       0.000000392910
143       0.000000567371
144      -0.000001375114
145      -0.000001834611
146       0.000000021903
147      -0.000000067688
148       0.000000109663
149       0.000000037493
150       0.000000010430
151       0.000000151844
152      -0.000000031638
153       0.000000262363
154      -0.000001213085
155       0.000002302680
156      -0.000007410391
157      -0.000016912982
158      -0.000048032616
159      -0.000000344886
160      -0.000000602766
161      -0.000000400849
162       0.000001802642
163       0.000003119424
164       0.000002088807
165      -0.000011231646
166      -0.000019665242
167      -0.000012903836
168       0.000000139328
169      -0.000000207999
170      -0.000000158030
171       0.000000068331
172       0.000000011280
173      -0.000000647393
174       0.000001390905
175       0.000001827907
176      -0.000000872491
177       0.000001153458
178      -0.000000096153
179       0.000000012030
180       0.000000015237
181      -0.000000068334
182       0.000000133081
183       0.000000086537
184       0.000000012046
185       0.000000259757
186      -0.000001201186
187       0.000002281020
188      -0.000007368279
189      -0.000016892371
190      -0.000048412160
191       0.000000676370
192      -0.000000145739
193       0.000000389113
194      -0.000003631331
195       0.000000773168
196      -0.000002091604
197       0.000022025283
198      -0.000004893976
199       0.000012807674
200       0.000000129120
201      -0.000000226732
202      -0.000000088300
203      -0.000000002274
204       0.000000082361
205      -0.000000661565
206       0.000002166817
207      -0.000000071385
208       0.000001271852
209      -0.000000795268
210       0.000000093132
211      -0.000000021975
212      -0.000000012930
213      -0.000000121332
214       0.000000053847
215       0.000000068149
216      -0.000000056691
217      -0.000000330191
218      -0.000003860903
219      -0.000003834598
220       0.000000130959
221      -0.000000022826
222       0.000000097287
223      -0.000000359665
224      -0.000004174978
225      -0.000003808054
226      -0.000000113888
227       0.000000231326
228       0.000000071371
229      -0.000000345941
230      -0.000004078471
231      -0.000003851515
232      -0.000000114459
233      -0.000000175474
234      -0.000000091397
 Sym=     1a
 Ene= -3.35436462008105E+02
 Spin= Alpha
 Occup= 1.000000
  1       0.034047981867
  2       0.041711650564
  3       0.073951670450
  4       0.149187927489
  5       0.204272810277
  6       0.077413511175
  7      -0.476788356448
  8      -0.596815991753
  9      -0.092675558793
 10      -0.004399046462
 11       0.003896348036
 12      -0.002794020824
 13       0.002056040215
 14      -0.001523970912
 15       0.001256931942
 16      -0.001097314467
 17       0.000211388409
 18      -0.000054359960
 19      -0.000000421618
 20      -0.000000704789
 21      -0.000000113262
 22      -0.000000578175
 23      -0.000000995469
 24      -0.000000111735
 25      -0.000000464676
 26      -0.000000790486
 27       0.000000014536
 28      -0.000000102832
 29      -0.000000222569
 30       0.000000031356
 31      -0.000000082941
 32      -0.000000022761
 33       0.000000103213
 34       0.000000199999
 35       0.000000113937
 36      -0.000000281315
 37      -0.000000382879
 38      -0.000000242535
 39       0.000000565879
 40       0.000000716332
 41       0.000000517952
 42      -0.000001171576
 43      -0.000001440075
 44      -0.000000966915
 45       0.000002289007
 46       0.000003651088
 47       0.000005258300
 48      -0.000009267665
 49      -0.000000431141
 50      -0.000000672571
 51       0.000001116754
 52       0.000000103299
 53       0.000000209720
 54      -0.000000321541
 55       0.000022469581
 56      -0.000026352274
 57      -0.000011336875
 58       0.000004966871
 59       0.000011448596
 60       0.000002295952
 61      -0.000002619248
 62      -0.000001072770
 63       0.000000484510
 64       0.000001164410
 65       0.000001163654
 66      -0.000001746445
 67      -0.000001078189
 68       0.000000419790
 69       0.000000604199
 70      -0.000003719655
 71       0.000005266383
 72       0.000003052575
 73      -0.000001220710
 74      -0.000001928373
 75       0.000008899705
 76      -0.000012486055
 77      -0.000007158366
 78       0.000002872633
 79       0.000004611695
 80      -0.000017271356
 81       0.000024224712
 82       0.000013857534
 83      -0.000005552647
 84      -0.000008962413
 85       0.000076034271
 86      -0.000106679919
 87      -0.000061022240
 88       0.000024410463
 89       0.000039361764
 90      -0.000002650244
 91       0.000003422655
 92       0.000002026703
 93      -0.000001063511
 94      -0.000001506053
 95       0.000000858801
 96      -0.000001125637
 97      -0.000000681375
 98       0.000000335253
 99       0.000000464142
100       0.000000138339
101      -0.000000396135
102       0.000000903886
103      -0.000001245324
104       0.000001363223
105       0.000002261909
106      -0.000000616533
107      -0.000000888649
108       0.000002449599
109      -0.000005707209
110       0.000007842149
111      -0.000008511550
112      -0.000014189175
113       0.000003881883
114       0.000004360778
115      -0.000012299464
116       0.000029372318
117      -0.000040100841
118       0.000043318722
119       0.000072547871
120      -0.000019814068
121      -0.000001005968
122       0.000004979787
123      -0.000009850020
124       0.000032474844
125       0.000073762169
126       0.000209022143
127       0.000001583449
128      -0.000003237611
129      -0.000000272395
130      -0.000007826484
131       0.000015950473
132       0.000001296846
133       0.000050238047
134      -0.000101887755
135      -0.000008985044
136      -0.000000836083
137       0.000000759323
138       0.000000535632
139      -0.000000458525
140      -0.000000670026
141       0.000006987143
142      -0.000001687137
143      -0.000002520119
144       0.000006213535
145       0.000008282070
146      -0.000000104497
147       0.000000321005
148      -0.000000533132
149      -0.000000166215
150      -0.000000058191
151      -0.000000743237
152       0.000000154689
153      -0.000001003526
154       0.000004967694
155      -0.000009827285
156       0.000032444398
157       0.000073948125
158       0.000209510197
159       0.000001547322
160       0.000002704317
161       0.000001798486
162      -0.000007818082
163      -0.000013533038
164      -0.000009062922
165       0.000049067732
166       0.000085922122
167       0.000056372575
168      -0.000000618741
169       0.000000948808
170       0.000000770108
171      -0.000000339251
172       0.000000026607
173       0.000002875179
174      -0.000006218747
175      -0.000008241282
176       0.000003942194
177      -0.000005266149
178       0.000000462173
179      -0.000000059073
180      -0.000000081907
181       0.000000338169
182      -0.000000645999
183      -0.000000434595
184      -0.000000050838
185      -0.000000993957
186       0.000004920433
187      -0.000009738383
188       0.000032269524
189       0.000073865738
190       0.000211156706
191      -0.000003037257
192       0.000000654845
193      -0.000001747233
194       0.000015760889
195      -0.000003356765
196       0.000009075586
197      -0.000096225504
198       0.000021387028
199      -0.000055954632
200      -0.000000576877
201       0.000001077085
202       0.000000360232
203       0.000000090631
204      -0.000000392854
205       0.000002942611
206      -0.000009753901
207       0.000000379952
208      -0.000005800653
209       0.000003583971
210      -0.000000451392
211       0.000000106179
212       0.000000050988
213       0.000000599803
214      -0.000000268673
215      -0.000000346994
216       0.000000281377
217       0.000001533521
218       0.000017209912
219       0.000016747598
220      -0.000000710937
221       0.000000128819
222      -0.000000507585
223       0.000001660899
224       0.000018588560
225       0.000016632955
226       0.000000570505
227      -0.000001158838
228      -0.000000327714
229       0.000001601803
230       0.000018156990
231       0.000016821799
232       0.000000571899
233       0.000000888972
234       0.000000479692
 Sym=     1a
 Ene= -2.98267695198094E+02
 Spin= Alpha
 Occup= 1.000000
  1      -0.000000020269
  2      -0.000000025168
  3      -0.000000043965
  4      -0.000000092293
  5      -0.000000118323
  6      -0.000000057279
  7       0.000000366697
  8       0.000000400494
  9      -0.000000192800
 10       0.000000054754
 11      -0.000000018690
 12       0.000000115163
 13      -0.000000291760
 14       0.000001301511
 15      -0.000011955181
 16       0.000033884687
 17      -0.000004649814
 18       0.000001268577
 19       0.255165647065
 20      -0.237997517076
 21       0.076568642674
 22       0.342586017869
 23      -0.319536005065
 24       0.102801282222
 25       0.216342682614
 26      -0.201786639265
 27       0.064918862480
 28       0.010758669700
 29      -0.010034714576
 30       0.003228530862
 31       0.004032997737
 32      -0.003761830246
 33       0.001209936396
 34      -0.002784060903
 35       0.002597086811
 36      -0.000834936413
 37       0.001710951332
 38      -0.001596438669
 39       0.000512512271
 40      -0.001113824684
 41       0.001039778156
 42      -0.000332626422
 43       0.000757357820
 44      -0.000707298021
 45       0.000225050271
 46      -0.000308867539
 47       0.000290558788
 48      -0.000090697436
 49       0.000125212510
 50      -0.000117077080
 51       0.000037471961
 52      -0.000031500263
 53       0.000029299410
 54      -0.000009594268
 55      -0.000000012044
 56      -0.000000065998
 57       0.000000099298
 58       0.000000181868
 59       0.000000025749
 60       0.000001004514
 61       0.000002154339
 62      -0.000000569753
 63       0.000002998288
 64       0.000001366443
 65      -0.000003093474
 66      -0.000006706513
 67       0.000001841900
 68      -0.000009144732
 69      -0.000004151975
 70       0.000007287248
 71       0.000015768035
 72      -0.000004256171
 73       0.000021658781
 74       0.000009832684
 75      -0.000015981548
 76      -0.000034628617
 77       0.000009325376
 78      -0.000047629082
 79      -0.000021563629
 80       0.000029041517
 81       0.000063275720
 82      -0.000017067464
 83       0.000086977173
 84       0.000039138946
 85      -0.000003194026
 86       0.000004101846
 87       0.000003764846
 88       0.000000761345
 89      -0.000001637031
 90      -0.000002538675
 91      -0.000006563364
 92       0.000001417129
 93      -0.000008361372
 94      -0.000003551425
 95       0.000002858143
 96       0.000006604336
 97      -0.000001655571
 98       0.000008789262
 99       0.000003941053
100       0.000000226794
101      -0.000000026858
102      -0.000000889638
103      -0.000001985636
104       0.000000449164
105      -0.000000998501
106      -0.000000771259
107      -0.000011825356
108      -0.000007313392
109       0.000021761396
110       0.000031502746
111      -0.000009573736
112       0.000014251275
113       0.000005732551
114       0.000003605611
115       0.000002857941
116      -0.000009204956
117      -0.000010843326
118       0.000001523479
119      -0.000007995556
120      -0.000000976712
121       0.000000944635
122      -0.000004975590
123       0.000010738430
124      -0.000037704162
125      -0.000028742740
126      -0.000076327022
127      -0.000005786517
128       0.000012765474
129       0.000001225409
130       0.000043363692
131      -0.000090577386
132      -0.000008034254
133       0.000063641488
134      -0.000121270827
135      -0.000010080379
136       0.000001855326
137       0.000000636514
138      -0.000000919428
139       0.000002927625
140       0.000002137608
141      -0.000014379670
142      -0.000002960792
143       0.000005049114
144      -0.000019260205
145      -0.000017876551
146       0.000001743876
147      -0.000002203299
148       0.000005130673
149       0.000001656252
150       0.000001618061
151       0.000007083198
152      -0.000002608935
153      -0.000000025922
154       0.000000153375
155      -0.000000394616
156       0.000001608354
157      -0.000001491160
158      -0.000000440314
159       0.000001448083
160       0.000000095148
161       0.000000906547
162      -0.000006474992
163      -0.000005131251
164      -0.000005526993
165       0.000000186723
166      -0.000020604443
167      -0.000006276371
168       0.000000649551
169       0.000001419087
170      -0.000000211189
171       0.000002106604
172       0.000000976678
173      -0.000002708949
174      -0.000006566042
175       0.000000332066
176      -0.000008986322
177      -0.000004690148
178       0.000000252110
179      -0.000000739233
180      -0.000000742186
181      -0.000001554210
182      -0.000001851288
183      -0.000000028501
184       0.000002391024
185      -0.000000729577
186       0.000003890760
187      -0.000008588228
188       0.000031327505
189       0.000018258903
190       0.000054020866
191      -0.000011018980
192       0.000001632631
193      -0.000006552054
194       0.000082052848
195      -0.000015696024
196       0.000047981570
197       0.000122339873
198      -0.000032174450
199       0.000069984888
200       0.000000091159
201       0.000002681677
202      -0.000000002654
203       0.000002383847
204       0.000000458474
205       0.000001499615
206      -0.000020392618
207       0.000001570006
208      -0.000017468160
209       0.000001160557
210      -0.000003900429
211       0.000001725897
212      -0.000000168871
213       0.000006529806
214      -0.000001565973
215      -0.000004095121
216       0.000001529606
217       0.000007598399
218      -0.000132266674
219      -0.000051144453
220       0.000029560326
221      -0.000003156805
222       0.000018419555
223      -0.000008580212
224       0.000132834599
225       0.000052427149
226       0.000013446525
227      -0.000032166384
228      -0.000004509621
229       0.000000560368
230      -0.000015135665
231      -0.000005597847
232      -0.000006430062
233       0.000000745785
234      -0.000003587624
 Sym=     1a
 Ene= -2.98266319728317E+02
 Spin= Alpha
 Occup= 1.000000
  1      -0.000000081688
  2      -0.000000100658
  3      -0.000000176377
  4      -0.000000363966
  5      -0.000000483182
  6      -0.000000203362
  7       0.000001199611
  8       0.000001481277
  9       0.000000290890
 10      -0.000000547472
 11       0.000000815155
 12      -0.000001420776
 13       0.000002375115
 14      -0.000003586780
 15       0.000004908649
 16      -0.000006188995
 17       0.000000137595
 18       0.000000010084
 19      -0.182159196733
 20      -0.251918162704
 21      -0.175987295060
 22      -0.244567740858
 23      -0.338226286836
 24      -0.236281069048
 25      -0.154441909361
 26      -0.213586397443
 27      -0.149209218890
 28      -0.007678932894
 29      -0.010619093314
 30      -0.007417687205
 31      -0.002878400926
 32      -0.003981782595
 33      -0.002783030534
 34       0.001985759787
 35       0.002748230169
 36       0.001922474678
 37      -0.001217993233
 38      -0.001688141310
 39      -0.001184206642
 40       0.000788671415
 41       0.001097332093
 42       0.000775957926
 43      -0.000531670506
 44      -0.000743984495
 45      -0.000533093739
 46       0.000221460452
 47       0.000307039581
 48       0.000213204319
 49      -0.000090435666
 50      -0.000124286401
 51      -0.000085311771
 52       0.000023305679
 53       0.000031373529
 54       0.000020879027
 55       0.000000178528
 56      -0.000000129654
 57      -0.000000278651
 58       0.000000197855
 59      -0.000000416503
 60       0.000000506823
 61       0.000000052189
 62       0.000002226577
 63      -0.000001365939
 64       0.000003221232
 65      -0.000001535909
 66       0.000000010682
 67      -0.000006659674
 68       0.000004163758
 69      -0.000009865054
 70       0.000003732407
 71      -0.000000001622
 72       0.000015759790
 73      -0.000009794998
 74       0.000023259826
 75      -0.000008244371
 76       0.000000046397
 77      -0.000034603699
 78       0.000021520916
 79      -0.000051018391
 80       0.000015051058
 81      -0.000000225060
 82       0.000063089047
 83      -0.000039360942
 84       0.000092979890
 85       0.000002202738
 86      -0.000000760242
 87       0.000001296517
 88      -0.000000105037
 89       0.000000741506
 90      -0.000001509689
 91       0.000000154798
 92      -0.000006277924
 93       0.000003957795
 94      -0.000009174975
 95       0.000001551949
 96      -0.000000041400
 97       0.000006389094
 98      -0.000003965600
 99       0.000009512683
100      -0.000002436889
101       0.000000953821
102      -0.000000047853
103      -0.000000750459
104       0.000001624712
105       0.000000781705
106       0.000000476588
107       0.000035178218
108      -0.000011445617
109       0.000005940922
110       0.000001727638
111      -0.000020847329
112       0.000002688788
113      -0.000011717389
114      -0.000013590404
115       0.000003407479
116      -0.000002598255
117      -0.000001729180
118       0.000007225668
119       0.000000014949
120       0.000005592692
121       0.000000420843
122      -0.000002227925
123       0.000004851488
124      -0.000017109897
125      -0.000010724605
126      -0.000032243810
127      -0.000003918147
128       0.000005730786
129      -0.000000132643
130       0.000024157012
131      -0.000043626947
132      -0.000002172527
133       0.000023722938
134      -0.000068709911
135      -0.000012176137
136       0.000001030670
137      -0.000000234754
138       0.000001134119
139      -0.000000683612
140       0.000002737825
141      -0.000007464685
142       0.000000993417
143      -0.000004506722
144      -0.000000106803
145      -0.000015814471
146      -0.000000339854
147      -0.000002025738
148       0.000002531289
149      -0.000000442142
150      -0.000000319422
151       0.000004304988
152       0.000001877910
153      -0.000001009684
154       0.000005331607
155      -0.000011559453
156       0.000040827283
157       0.000028707824
158       0.000077100083
159       0.000006677898
160       0.000011736199
161       0.000007986469
162      -0.000048898170
163      -0.000084994888
164      -0.000056979847
165      -0.000070070162
166      -0.000121748839
167      -0.000078201625
168      -0.000000218967
169       0.000001433912
170       0.000003006290
171      -0.000001570522
172       0.000002483259
173       0.000002651433
174      -0.000011791223
175      -0.000022241111
176       0.000011186927
177      -0.000018292990
178       0.000004877315
179      -0.000000751687
180      -0.000001166997
181       0.000004023661
182      -0.000006751019
183      -0.000005451589
184      -0.000000253475
185       0.000000513687
186      -0.000002726638
187       0.000005971817
188      -0.000021584866
189      -0.000014280234
190      -0.000039401403