[Molden Format]
[Title]
 Molden file created by orca_2mkl for BaseName=/home/nikolayandreadi_2125/_scratch/F2_cc/Nd_F2_cc

[Atoms] AU
Nd   1  60         -0.3452737517        -0.4480710739        -1.5711806687 
F    2   9         -1.8957921548         2.9686463728        -0.5940543075 
F    3   9          3.4160050200        -0.8589636758        -0.7127517854 
[GTO]
  1 0
s   6 1.0 
   994735.7959840000      1863.9135210443
   442104.7982150000      -485.8456998776
   196491.0214290000      1100.1532089676
    87329.3428570000       270.9095245490
    38813.0412700000       691.0933671839
    17250.2405640000       543.4710696949
s   1 1.0 
     7666.7735840000       583.9418085366
s   1 1.0 
     3407.4549260000       317.8576600717
s   1 1.0 
     1514.4244120000       173.0197951516
s   1 1.0 
      673.0775160000        94.1800474027
s   1 1.0 
      299.1455630000        51.2651245068
s   1 1.0 
      132.9535830000        27.9051991663
s   1 1.0 
       59.0904820000        15.1896666015
s   1 1.0 
       26.2624360000         8.2682071254
s   1 1.0 
       11.6721940000         4.5006419631
s   1 1.0 
        5.1876420000         2.4498392620
s   1 1.0 
        2.3056190000         1.3335237321
s   1 1.0 
        1.0247190000         0.7258780834
s   1 1.0 
        0.4554310000         0.3951181991
s   1 1.0 
        0.2024140000         0.2150752828
s   1 1.0 
        0.0899620000         0.1170723723
s   1 1.0 
        0.0399830000         0.0637259950
s   1 1.0 
        0.0177700000         0.0346877127
p   5 1.0 
    13410.3010510000      2401.5364004241
     5364.1204200000      1024.5588215214
     2145.6481680000      1626.1321344023
      858.2592670000      1638.1793695256
      343.3037070000      1573.4149290153
p   1 1.0 
      137.3214830000       670.0592301905
p   1 1.0 
       54.9285930000       213.1513959541
p   1 1.0 
       21.9714370000        67.8052256278
p   1 1.0 
        8.7885750000        21.5694050932
p   1 1.0 
        3.5154300000         6.8614066030
p   1 1.0 
        1.4061720000         2.1826703318
p   1 1.0 
        0.5624690000         0.6943258388
p   1 1.0 
        0.2249880000         0.2208712972
p   1 1.0 
        0.0899950000         0.0702607958
p   1 1.0 
        0.0359980000         0.0223505417
p   1 1.0 
        0.0143990000         0.0071097692
d   4 1.0 
      918.9318400000      3603.5190663488
      334.1570330000      3495.8915352391
      121.5116480000      3244.5867394900
       44.1860540000      1718.4301569526
d   1 1.0 
       16.0676560000       367.6097339451
d   1 1.0 
        5.8427840000        62.5971828323
d   1 1.0 
        2.1246490000        10.6591524025
d   1 1.0 
        0.7726000000         1.8150592864
d   1 1.0 
        0.2809450000         0.3090703695
d   1 1.0 
        0.1021620000         0.0526291686
d   1 1.0 
        0.0371500000         0.0089618571
d   1 1.0 
        0.0135090000         0.0015260216
f   4 1.0 
       23.0540210000       712.1519496894
        7.6846740000       187.9678783496
        2.5615580000        24.4339048979
        0.8538530000         1.5279715144
f   1 1.0 
        0.2846180000         0.3373575197
f   1 1.0 
        0.0948730000         0.0284820343

  2 0
s   6 1.0 
    35479.1004410000         1.9229128581
     5318.4728983000         2.2734773358
     1210.4810975000         3.4747482552
      342.8551814000         5.2879612972
      112.0194318100         7.1666332516
       40.7147402500         7.7556346254
s   1 1.0 
       16.0396781100         5.7122450312
s   1 1.0 
        6.5038186700         2.9025947842
s   1 1.0 
        1.5440477500         0.9872011154
s   1 1.0 
        0.6122345300        -0.4932856223
s   1 1.0 
        0.2402798000         0.2445952611
p   4 1.0 
       80.2339004800         4.2755032106
       18.5940107400         4.7314752302
        5.6867902700         4.0864798013
        1.9511006300         2.2989954518
p   1 1.0 
        0.6697021100         0.8635593126
p   1 1.0 
        0.2165130000         0.2105208234
d   1 1.0 
        3.1070000000        20.7284714039
d   1 1.0 
        0.8550000000         2.1672588463
f   1 1.0 
        1.9170000000        24.6547062912

  3 0
s   6 1.0 
    35479.1004410000         1.9229128581
     5318.4728983000         2.2734773358
     1210.4810975000         3.4747482552
      342.8551814000         5.2879612972
      112.0194318100         7.1666332516
       40.7147402500         7.7556346254
s   1 1.0 
       16.0396781100         5.7122450312
s   1 1.0 
        6.5038186700         2.9025947842
s   1 1.0 
        1.5440477500         0.9872011154
s   1 1.0 
        0.6122345300        -0.4932856223
s   1 1.0 
        0.2402798000         0.2445952611
p   4 1.0 
       80.2339004800         4.2755032106
       18.5940107400         4.7314752302
        5.6867902700         4.0864798013
        1.9511006300         2.2989954518
p   1 1.0 
        0.6697021100         0.8635593126
p   1 1.0 
        0.2165130000         0.2105208234
d   1 1.0 
        3.1070000000        20.7284714039
d   1 1.0 
        0.8550000000         2.1672588463
f   1 1.0 
        1.9170000000        24.6547062912

[5D]
[7F]
[9G]
[MO]
 Sym=     1a
 Ene= -1.60737006409122E+03
 Spin= Alpha
 Occup= 1.000000
  1       0.080655299350
  2       0.093496111093
  3       0.170836510087
  4       0.298998720887
  5       0.346279842567
  6       0.176840276741
  7       0.011066585314
  8       0.003123695008
  9      -0.002270213577
 10       0.001492196587
 11      -0.001006285411
 12       0.000674209944
 13      -0.000444001058
 14       0.000290649800
 15      -0.000183235934
 16       0.000101170451
 17      -0.000043323944
 18       0.000011786176
 19      -0.000000058633
 20      -0.000000080734
 21      -0.000000049295
 22       0.000000186820
 23       0.000000255890
 24       0.000000155964
 25      -0.000000117724
 26      -0.000000160959
 27      -0.000000098180
 28       0.000000208293
 29       0.000000283898
 30       0.000000173268
 31      -0.000000339156
 32      -0.000000461708
 33      -0.000000281862
 34       0.000000561260
 35       0.000000763681
 36       0.000000466253
 37      -0.000001023160
 38      -0.000001392310
 39      -0.000000850008
 40       0.000001835697
 41       0.000002500242
 42       0.000001525942
 43      -0.000002404590
 44      -0.000003277447
 45      -0.000001999805
 46       0.000001447910
 47       0.000001954304
 48       0.000001196306
 49      -0.000000000604
 50       0.000000006163
 51       0.000000002360
 52      -0.000000019350
 53      -0.000000028267
 54      -0.000000016868
 55      -0.000000037089
 56       0.000000010271
 57       0.000000017278
 58       0.000000011006
 59      -0.000000031802
 60       0.000000134860
 61      -0.000000035141
 62      -0.000000059932
 63      -0.000000041506
 64       0.000000120346
 65      -0.000000319825
 66       0.000000078132
 67       0.000000135362
 68       0.000000102309
 69      -0.000000297730
 70       0.000000640499
 71      -0.000000148285
 72      -0.000000260400
 73      -0.000000211125
 74       0.000000615850
 75      -0.000001320958
 76       0.000000301527
 77       0.000000531828
 78       0.000000438101
 79      -0.000001280125
 80       0.000002194752
 81      -0.000000499379
 82      -0.000000883019
 83      -0.000000726842
 84       0.000002129640
 85      -0.000001500367
 86       0.000000307562
 87       0.000000553896
 88       0.000000531470
 89      -0.000001541678
 90      -0.000000113411
 91       0.000000023817
 92       0.000000044662
 93       0.000000036592
 94      -0.000000113624
 95       0.000000052397
 96      -0.000000011027
 97      -0.000000020382
 98      -0.000000017320
 99       0.000000052651
100      -0.000000132122
101      -0.000000058271
102      -0.000000066174
103       0.000000020610
104      -0.000000091226
105      -0.000000287583
106       0.000000092080
107       0.000000922986
108       0.000000404890
109       0.000000461225
110      -0.000000141074
111       0.000000630574
112       0.000001997808
113      -0.000000639571
114      -0.000000829633
115      -0.000000372742
116      -0.000000422409
117       0.000000139578
118      -0.000000605220
119      -0.000001857106
120       0.000000594600
121       0.000000062186
122      -0.000000295098
123       0.000000584413
124      -0.000002009714
125      -0.000003816567
126      -0.000003334608
127      -0.000000127333
128       0.000000356479
129       0.000000111349
130       0.000000906911
131      -0.000002232253
132      -0.000000667352
133       0.000000357192
134      -0.000000322285
135      -0.000000034582
136       0.000000033061
137       0.000000012734
138      -0.000000044582
139       0.000000061907
140       0.000000037830
141      -0.000000439482
142      -0.000000185793
143       0.000000452269
144      -0.000000628232
145      -0.000000631549
146      -0.000000077619
147       0.000000048210
148      -0.000000090978
149      -0.000000065991
150      -0.000000077243
151      -0.000000160628
152       0.000000028111
153       0.000000062859
154      -0.000000298108
155       0.000000589743
156      -0.000002018825
157      -0.000003821806
158      -0.000003350924
159       0.000000385144
160      -0.000000010887
161       0.000000100683
162      -0.000002425441
163       0.000000168974
164      -0.000000592896
165      -0.000000407659
166       0.000000235115
167      -0.000000014926
168       0.000000036996
169      -0.000000044028
170      -0.000000001396
171      -0.000000076748
172      -0.000000005229
173      -0.000000468450
174       0.000000439044
175      -0.000000031899
176       0.000000901967
177      -0.000000141164
178      -0.000000067490
179      -0.000000109753
180       0.000000018381
181       0.000000085595
182      -0.000000018749
183      -0.000000147566
184       0.000000070411
 Sym=     1a
 Ene= -2.64572428452291E+02
 Spin= Alpha
 Occup= 1.000000
  1       0.029588660376
  2       0.037647338473
  3       0.069945371460
  4       0.144396245526
  5       0.206875676073
  6       0.096538290964
  7      -0.451510621684
  8      -0.615362594048
  9      -0.109978311023
 10      -0.003665482502
 11       0.003094286130
 12      -0.002207455672
 13       0.001617308972
 14      -0.001107458226
 15       0.000704573717
 16      -0.000390881802
 17       0.000167947840
 18      -0.000045783143
 19      -0.000008360389
 20      -0.000011454003
 21      -0.000006965956
 22      -0.000012339831
 23      -0.000016897664
 24      -0.000010279381
 25      -0.000010137241
 26      -0.000013879658
 27      -0.000008442598
 28      -0.000000006406
 29      -0.000000015278
 30      -0.000000003841
 31       0.000000030629
 32       0.000000037671
 33       0.000000023548
 34      -0.000001817718
 35      -0.000002471895
 36      -0.000001509172
 37       0.000003790656
 38       0.000005157330
 39       0.000003148636
 40      -0.000007052630
 41      -0.000009607384
 42      -0.000005863133
 43       0.000009581044
 44       0.000013064232
 45       0.000007970322
 46      -0.000005517984
 47      -0.000007447943
 48      -0.000004559110
 49      -0.000000063214
 50      -0.000000113166
 51      -0.000000063647
 52       0.000000091849
 53       0.000000132519
 54       0.000000079393
 55       0.000002418066
 56      -0.000001002617
 57      -0.000001567926
 58      -0.000000456506
 59       0.000001278759
 60      -0.000000008435
 61      -0.000000021711
 62      -0.000000026453
 63       0.000000019684
 64      -0.000000065166
 65       0.000000084034
 66       0.000000048523
 67       0.000000054864
 68      -0.000000080129
 69       0.000000244312
 70      -0.000002029425
 71       0.000000432444
 72       0.000000776549
 73       0.000000697278
 74      -0.000002041413
 75       0.000005119191
 76      -0.000001169214
 77      -0.000002062588
 78      -0.000001696236
 79       0.000004958741
 80      -0.000008802865
 81       0.000002005891
 82       0.000003546960
 83       0.000002910791
 84      -0.000008533502
 85       0.000005713904
 86      -0.000001166729
 87      -0.000002103574
 88      -0.000002027338
 89       0.000005882137
 90       0.000000502268
 91      -0.000000107071
 92      -0.000000198919
 93      -0.000000162297
 94       0.000000500087
 95      -0.000000221446
 96       0.000000047230
 97       0.000000086782
 98       0.000000072993
 99      -0.000000221138
100       0.000000636773
101       0.000000281238
102       0.000000319935
103      -0.000000099655
104       0.000000441836
105       0.000001390798
106      -0.000000445201
107      -0.000003866386
108      -0.000001691678
109      -0.000001927693
110       0.000000584539
111      -0.000002620390
112      -0.000008335942
113       0.000002668356
114       0.000003286320
115       0.000001473526
116       0.000001670361
117      -0.000000548572
118       0.000002383470
119       0.000007334489
120      -0.000002348171
121      -0.000000209148
122       0.000001071267
123      -0.000002263652
124       0.000007921044
125       0.000014678487
126       0.000012403155
127       0.000000545623
128      -0.000001504140
129      -0.000000467554
130      -0.000003581413
131       0.000008798308
132       0.000002628487
133      -0.000001506860
134       0.000001551412
135       0.000000224476
136      -0.000000171332
137      -0.000000070157
138       0.000000215998
139      -0.000000302906
140      -0.000000213285
141       0.000001819667
142       0.000000776610
143      -0.000001870865
144       0.000002607511
145       0.000002626792
146       0.000000264316
147      -0.000000169511
148       0.000000312501
149       0.000000223067
150       0.000000259574
151       0.000000545152
152      -0.000000083907
153      -0.000000211123
154       0.000001081301
155      -0.000002282338
156       0.000007953427
157       0.000014695598
158       0.000012466982
159      -0.000001625901
160       0.000000053571
161      -0.000000421923
162       0.000009559758
163      -0.000000672208
164       0.000002334357
165       0.000001906999
166      -0.000000933605
167       0.000000137928
168      -0.000000188983
169       0.000000212804
170      -0.000000000474
171       0.000000388807
172       0.000000003626
173       0.000001938321
174      -0.000001816695
175       0.000000139525
176      -0.000003743695
177       0.000000589691
178       0.000000228795
179       0.000000376991
180      -0.000000066723
181      -0.000000287445
182       0.000000061068
183       0.000000493062
184      -0.000000247884
 Sym=     1a
 Ene= -2.36740301608245E+02
 Spin= Alpha
 Occup= 1.000000
  1      -0.000000006572
  2      -0.000000008303
  3      -0.000000015791
  4      -0.000000031419
  5      -0.000000048482
  6      -0.000000015289
  7       0.000000096838
  8       0.000000136005
  9       0.000000016250
 10       0.000000036308
 11      -0.000000072633
 12       0.000000110359
 13      -0.000000200355
 14       0.000000369867
 15      -0.000000173636
 16      -0.000000678011
 17       0.000000297099
 18      -0.000000070039
 19       0.283188531121
 20      -0.204827206654
 21      -0.006643739383
 22       0.388346607009
 23      -0.280886913781
 24      -0.009110801142
 25       0.249886727705
 26      -0.180740365906
 27      -0.005862460581
 28       0.014320688138
 29      -0.010358001227
 30      -0.000335971158
 31       0.004407164161
 32      -0.003187642402
 33      -0.000103389257
 34      -0.003060024600
 35       0.002213248807
 36       0.000071775550
 37       0.001853393770
 38      -0.001340477020
 39      -0.000043455460
 40      -0.001178502642
 41       0.000852307592
 42       0.000027610413
 43       0.000757255769
 44      -0.000547673662
 45      -0.000017747805
 46      -0.000296375951
 47       0.000214277626
 48       0.000006917446
 49       0.000125670869
 50      -0.000090880593
 51      -0.000002942094
 52      -0.000041471216
 53       0.000029990022
 54       0.000000970688
 55      -0.000000080884
 56       0.000002372443
 57      -0.000001860832
 58       0.000005837159
 59       0.000001896122
 60      -0.000000006246
 61       0.000000126098
 62      -0.000000095474
 63       0.000000312001
 64       0.000000102289
 65       0.000000113426
 66      -0.000002938613
 67       0.000002290641
 68      -0.000007199234
 69      -0.000002331536
 70      -0.000000315079
 71       0.000008277107
 72      -0.000006456025
 73       0.000020290675
 74       0.000006574652
 75       0.000000733706
 76      -0.000019471827
 77       0.000015192905
 78      -0.000047733048
 79      -0.000015473695
 80      -0.000001318223
 81       0.000036052713
 82      -0.000028154230
 83       0.000088390010
 84       0.000028696634
 85      -0.000000414606
 86       0.000012543019
 87      -0.000009814277
 88       0.000030751650
 89       0.000010039722
 90       0.000000389200
 91      -0.000010860732
 92       0.000008487528
 93      -0.000026631305
 94      -0.000008652751
 95      -0.000000117505
 96       0.000003292297
 97      -0.000002573284
 98       0.000008073240
 99       0.000002623442
100      -0.000000237294
101       0.000004295104
102      -0.000002947276
103      -0.000004027698
104      -0.000001535134
105      -0.000000309075
106      -0.000001271586
107       0.000001573747
108      -0.000027993903
109       0.000019076331
110       0.000030438148
111       0.000011282363
112       0.000000317041
113       0.000002989534
114      -0.000000425832
115       0.000007788935
116      -0.000005463716
117      -0.000003877953
118      -0.000001741487
119      -0.000001986012
120      -0.000006685566
121       0.000000083968
122      -0.000000612761
123       0.000001977179
124      -0.000012746017
125      -0.000003439931
126       0.000082052999
127      -0.000001566511
128       0.000006027213
129       0.000002042763
130       0.000011981944
131      -0.000035681790
132      -0.000011353977
133       0.000036362343
134      -0.000060322262
135      -0.000014797529
136       0.000001094876
137       0.000000450786
138      -0.000001531001
139       0.000002169514
140       0.000001253838
141      -0.000009638433
142      -0.000004076419
143       0.000011039634
144      -0.000015496952
145      -0.000013015502
146      -0.000000733506
147       0.000000666837
148      -0.000001186171
149      -0.000000371955
150      -0.000001218009
151      -0.000002468060
152      -0.000000075354
153      -0.000000094627
154       0.000000666365
155      -0.000002074823
156       0.000012892847
157       0.000003577481
158      -0.000081299759
159      -0.000006317465
160      -0.000000377755
161      -0.000001879581
162       0.000037879735
163      -0.000000300307
164       0.000010218364
165       0.000068700597
166      -0.000015704086
167       0.000012318782
168      -0.000001200103
169       0.000001498377
170       0.000000034583
171       0.000002592289
172       0.000000262451
173       0.000010268098
174      -0.000010672497
175       0.000000410252
176      -0.000020618644
177       0.000001370075
178       0.000000590128
179       0.000001418073
180      -0.000000293129
181      -0.000000823524
182       0.000000684795
183       0.000001939684
184      -0.000001508277
 Sym=     1a
 Ene= -2.36739959730863E+02
 Spin= Alpha
 Occup= 1.000000
  1       0.000001516334
  2       0.000001896538
  3       0.000003721594
  4       0.000007039564
  5       0.000011844652
  6       0.000001771008
  7      -0.000020382109
  8      -0.000033474593
  9       0.000003301093
 10      -0.000025554602
 11       0.000047140768
 12      -0.000075266374
 13       0.000124175297
 14      -0.000178199360
 15       0.000108165360
 16       0.000099181727
 17      -0.000064212805
 18       0.000014480987
 19       0.186027149905
 20       0.252171380130
 21       0.154912100069
 22       0.255107328088
 23       0.345813870744
 24       0.212437882146
 25       0.164148470594
 26       0.222513459469
 27       0.136692864436
 28       0.009408305213
 29       0.012753546304
 30       0.007834674244
 31       0.002891307833
 32       0.003919330321
 33       0.002407681610
 34      -0.002000141657
 35      -0.002711266971
 36      -0.001665541655
 37       0.001198671438
 38       0.001624786809
 39       0.000998078798
 40      -0.000738892248
 41      -0.001001508498
 42      -0.000615135975
 43       0.000452349530
 44       0.000613184551
 45       0.000376525336
 46      -0.000218177738
 47      -0.000295597453
 48      -0.000181664932
 49       0.000097715996
 50       0.000132429776
 51       0.000081403927
 52      -0.000031426717
 53      -0.000042590896
 54      -0.000026178685
 55      -0.000002483647
 56       0.000003140001
 57       0.000004369161
 58      -0.000001162758
 59       0.000003790004
 60      -0.000000085106
 61      -0.000000680908
 62      -0.000000884652
 63       0.000000571652
 64      -0.000001770118
 65       0.000003350901
 66      -0.000000861873
 67      -0.000001464351
 68      -0.000001055130
 69       0.000003024322
 70      -0.000009162769
 71       0.000002501338
 72       0.000004196381
 73       0.000002768210
 74      -0.000007916900
 75       0.000021430840
 76      -0.000006009853
 77      -0.000010032601
 78      -0.000006336805
 79       0.000018123326
 80      -0.000039602986
 81       0.000010827385
 82       0.000018215581
 83       0.000011862088
 84      -0.000034129028
 85      -0.000008446382
 86       0.000000331408
 87       0.000001337254
 88       0.000003990515
 89      -0.000012005809
 90       0.000011023365
 91      -0.000002838965
 92      -0.000004843767
 93      -0.000003432810
 94       0.000009918368
 95      -0.000003374654
 96       0.000000894098
 97       0.000001515858
 98       0.000001031219
 99      -0.000002976087
100       0.000001791907
101       0.000000963943
102       0.000001081298
103      -0.000000527020
104       0.000002082220
105       0.000005232572
106      -0.000001688459
107      -0.000020733695
108      -0.000008936085
109      -0.000010089133
110       0.000002917089
111      -0.000013091542
112      -0.000043210018
113       0.000013834159
114       0.000007106956
115       0.000002797870
116       0.000003141959
117      -0.000000615794
118       0.000003099869
119       0.000012629017
120      -0.000004026909
121      -0.000000286716
122       0.000001594483
123      -0.000003603043
124       0.000014240134
125       0.000013344840
126      -0.000042591403
127       0.000003670982
128      -0.000004117310
129      -0.000000679473
130      -0.000016783549
131       0.000024208026
132       0.000005322162
133      -0.000012393457
134       0.000043926788
135       0.000014640446
136      -0.000001406393
137      -0.000000696643
138       0.000000193644
139      -0.000000230198
140      -0.000003100933
141       0.000008653347
142       0.000003989123
143      -0.000004239424
144       0.000005677851
145       0.000016385251
146       0.000000908535
147       0.000000140976
148       0.000000339053
149       0.000001366823
150       0.000000347816
151       0.000000396452
152      -0.000001760795
153      -0.000000294365
154       0.000001633943
155      -0.000003679449
156       0.000014408178
157       0.000013475393
158      -0.000042439648
159      -0.000005145370
160       0.000002195455
161      -0.000000498941
162       0.000028552779
163      -0.000008360621
164       0.000004350170
165       0.000046048813
166       0.000001812005
167       0.000013333645
168      -0.000001469197
169       0.000000243850
170      -0.000000522478
171       0.000002089950
172      -0.000002375497
173       0.000009061302
174      -0.000004278030
175       0.000002138711
176      -0.000014619188
177       0.000009887501
178       0.000000885523
179       0.000000366798
180       0.000000263196
181      -0.000001245962
182      -0.000000464595
183       0.000001362213
184       0.000001217755
 Sym=     1a
 Ene= -2.36739236347422E+02
 Spin= Alpha
 Occup= 1.000000
  1      -0.000000004043
  2      -0.000000005083
  3      -0.000000009834
  4      -0.000000019062
  5      -0.000000030822
  6      -0.000000006867
  7       0.000000058240
  8       0.000000089304
  9      -0.000000009339
 10       0.000000050616
 11      -0.000000092823
 12       0.000000148989
 13      -0.000000245724
 14       0.000000352339
 15      -0.000000213637
 16      -0.000000196613
 17       0.000000127027
 18      -0.000000028639
 19      -0.085978297571
 20      -0.129033151539
 21       0.313292270019
 22      -0.117906619546
 23      -0.176950034711
 24       0.429634391435
 25      -0.075865940115
 26      -0.113856887573
 27       0.276444331179
 28      -0.004348760301
 29      -0.006526464332
 30       0.015846260912
 31      -0.001334671174
 32      -0.002003025666
 33       0.004863309996
 34       0.000920611118
 35       0.001381618026
 36      -0.003354498269
 37      -0.000546648188
 38      -0.000820385832
 39       0.001991764555
 40       0.000327568748
 41       0.000491595625
 42      -0.001193345934
 43      -0.000190966035
 44      -0.000286585087
 45       0.000695506246
 46       0.000105719763
 47       0.000158662623
 48      -0.000385320692
 49      -0.000050119745
 50      -0.000075220523
 51       0.000182723611
 52       0.000015921365
 53       0.000023894947
 54      -0.000058041771
 55       0.000004436134
 56       0.000002367059
 57       0.000003144589
 58       0.000000885695
 59      -0.000002412831
 60      -0.000000601521
 61      -0.000000321572
 62      -0.000000425932
 63      -0.000000120146
 64       0.000000328533
 65      -0.000000513204
 66      -0.000000269092
 67      -0.000000356460
 68      -0.000000098418
 69       0.000000267805
 70       0.000001044861
 71       0.000000543598
 72       0.000000721300
 73       0.000000199530
 74      -0.000000541559
 75      -0.000001964261
 76      -0.000001014113
 77      -0.000001347255
 78      -0.000000371715
 79       0.000001006168
 80       0.000002911721
 81       0.000001490455
 82       0.000001980047
 83       0.000000543572
 84      -0.000001468507
 85      -0.000002586292
 86      -0.000001395005
 87      -0.000001851431
 88      -0.000000525311
 89       0.000001436475
 90      -0.000000503072
 91      -0.000000255769
 92      -0.000000329814
 93      -0.000000087083
 94       0.000000242273
 95       0.000000200615
 96       0.000000103288
 97       0.000000133957
 98       0.000000035925
 99      -0.000000099595
100       0.000000031235
101      -0.000000595606
102      -0.000000812814
103       0.000000076010
104      -0.000000296244
105       0.000000342434
106      -0.000000100277
107      -0.000002446068
108       0.000001252989
109       0.000002059991
110       0.000000886350
111      -0.000002368891
112       0.000001235414
113      -0.000000331900
114       0.000003016736
115      -0.000001381136
116      -0.000002303744
117      -0.000001112860
118       0.000002986303
119      -0.000001514154
120       0.000000398942
121       0.000000000571
122      -0.000000003173
123       0.000000007164
124      -0.000000028262
125      -0.000000026403
126       0.000000084932
127      -0.000000669898
128      -0.000000986656
129       0.000002428567
130       0.000002062107
131       0.000002997984
132      -0.000007442279
133      -0.000002145055
134      -0.000003344828
135       0.000007918847
136      -0.000001297338
137       0.000001406832
138      -0.000002323737
139      -0.000001405642
140       0.000000232346
141       0.000004271157
142      -0.000004640292
143       0.000007669490
144       0.000004624785
145      -0.000000779329
146       0.000001025152
147       0.000000510504
148      -0.000001553681
149       0.000000749035
150       0.000001445605
151      -0.000000281301
152       0.000001072791
153       0.000000000585
154      -0.000000003244
155       0.000000007294
156      -0.000000028467
157      -0.000000026623
158       0.000000083833
159      -0.000000651434
160      -0.000000997620
161       0.000002424381
162       0.000001965336
163       0.000003051677
164      -0.000007413697
165      -0.000002260217
166      -0.000003260701
167       0.000007920237
168      -0.000001138372
169      -0.000002718264
170       0.000000593537
171       0.000000919095
172       0.000001104340
173       0.000003739834
174       0.000008953232
175      -0.000001952668
176      -0.000003008982
177      -0.000003639346
178       0.000001138960
179      -0.000001466276
180      -0.000000045690
181      -0.000001553832
182       0.000000711534
183      -0.000000808103
184      -0.000000788616
 Sym=     1a
 Ene= -5.95139255141178E+01
 Spin= Alpha
 Occup= 1.000000
  1      -0.013635053107
  2      -0.017553230576
  3      -0.032954147612
  4      -0.069056344507
  5      -0.104731518384
  6      -0.046478787822
  7       0.332093870191
  8       0.694617478997
  9      -0.333969768404
 10      -0.945536873764
 11      -0.081871133890
 12      -0.029269998097
 13       0.019998292752
 14      -0.013782824424
 15       0.008999411919
 16      -0.005016756619
 17       0.002165565356
 18      -0.000591923176
 19       0.000028760234
 20       0.000039489822
 21       0.000023966531
 22       0.000044332856
 23       0.000060878477
 24       0.000036948040
 25       0.000010790065
 26       0.000014759524
 27       0.000008970039
 28      -0.000119841702
 29      -0.000164443910
 30      -0.000099842330
 31      -0.000061047218
 32      -0.000083940745
 33      -0.000050883028
 34      -0.000017507601
 35      -0.000023746792
 36      -0.000014550852
 37       0.000042236966
 38       0.000057441053
 39       0.000035091702
 40      -0.000090784758
 41      -0.000123703627
 42      -0.000075497866
 43       0.000122269302
 44       0.000166784354
 45       0.000101746572
 46      -0.000069606115
 47      -0.000093964571
 48      -0.000057519528
 49      -0.000001088243
 50      -0.000001828096
 51      -0.000001045059
 52       0.000001263628
 53       0.000001815854
 54       0.000001088828