[Molden Format]
[Title]
 Molden file created by orca_2mkl for BaseName=/home/smirnovaanastasia2304_2125/_scratch/O2_cc/Yb_O2_cc

[Atoms] AU
Yb   1  70         -0.2428959486        -0.6397441059        -1.6759433061 
O    2   8         -1.4276125051         2.7782262292        -0.5166038819 
O    3   8          2.8454456775        -0.4768742796        -0.6854395736 
[GTO]
  1 0
s   6 1.0 
  1358076.4019249999      2707.2930152518
   603589.5119670000      -738.3436407800
   268262.0053190000      1561.8093109918
   119227.5579190000       321.3188957239
    52990.0257420000       910.2592971992
    23551.1225520000       650.0002417902
s   1 1.0 
    10467.1655790000       737.5337741991
s   1 1.0 
     4652.0735910000       401.4625366565
s   1 1.0 
     2067.5882620000       218.5285256475
s   1 1.0 
      918.9281170000       118.9518627382
s   1 1.0 
      408.4124960000        64.7491927610
s   1 1.0 
      181.5166650000        35.2449963543
s   1 1.0 
       80.6740730000        19.1849459526
s   1 1.0 
       35.8551440000        10.4429619475
s   1 1.0 
       15.9356190000         5.6844283346
s   1 1.0 
        7.0824980000         3.0942110849
s   1 1.0 
        3.1477770000         1.6842752256
s   1 1.0 
        1.3990120000         0.9168033087
s   1 1.0 
        0.6217830000         0.4990444444
s   1 1.0 
        0.2763480000         0.2716453884
s   1 1.0 
        0.1228210000         0.1478647196
s   1 1.0 
        0.0545870000         0.0804872358
s   1 1.0 
        0.0242610000         0.0438118524
p   5 1.0 
    18741.9577990000      4543.1010834218
     7496.7831200000      1702.6495515717
     2998.7132480000      2688.5302230256
     1199.4852990000      2527.9583676190
      479.7941200000      2363.5203868406
p   1 1.0 
      191.9176480000      1018.2014909638
p   1 1.0 
       76.7670590000       323.8983356454
p   1 1.0 
       30.7068240000       103.0347478518
p   1 1.0 
       12.2827290000        32.7762056036
p   1 1.0 
        4.9130920000        10.4263838277
p   1 1.0 
        1.9652370000         3.3167195680
p   1 1.0 
        0.7860950000         1.0550763307
p   1 1.0 
        0.3144380000         0.3356285290
p   1 1.0 
        0.1257750000         0.1067660057
p   1 1.0 
        0.0503100000         0.0339631517
p   1 1.0 
        0.0201240000         0.0108039602
d   4 1.0 
     1379.8152340000      7325.4223721174
      501.7509940000      6870.7279056516
      182.4549070000      6434.1168847394
       66.3472390000      3527.4353518373
d   1 1.0 
       24.1262690000       748.7345495231
d   1 1.0 
        8.7731890000       127.4957426618
d   1 1.0 
        3.1902500000        21.7101757349
d   1 1.0 
        1.1600910000         3.6968445084
d   1 1.0 
        0.4218510000         0.6295039778
d   1 1.0 
        0.1534000000         0.1071925155
d   1 1.0 
        0.0557820000         0.0182530198
d   1 1.0 
        0.0202840000         0.0031080564
f   4 1.0 
       41.1409390000      2636.1638558181
       13.7136460000       730.3196574878
        4.5712150000        90.4591085871
        1.5237380000         5.2735892425
f   1 1.0 
        0.5079130000         1.2417268408
f   1 1.0 
        0.1693040000         0.1048337984

  2 0
s   6 1.0 
    27032.3826310000         1.4645050749
     4052.3871392000         1.8244031008
      922.3272271000         2.8547160967
      261.2407098900         4.3654874290
       85.3546413500         5.8940772662
       31.0350352400         6.2963020147
s   1 1.0 
       12.2608607300         4.6698272139
s   1 1.0 
        4.9987076000         2.3826123703
s   1 1.0 
        1.1703108200         0.8019291632
s   1 1.0 
        0.4647474100        -0.4011648063
s   1 1.0 
        0.1850453600         0.2010799377
p   4 1.0 
       63.2749548000         3.0898340730
       14.6270493800         3.3923831935
        4.4501223500         2.9482801524
        1.5275799600         1.7113350234
p   1 1.0 
        0.5293511800         0.6436057935
p   1 1.0 
        0.1747842100         0.1610897223
d   1 1.0 
        2.3140000000        12.3767310624
d   1 1.0 
        0.6450000000         1.3234257612
f   1 1.0 
        1.4280000000        12.7097950062

  3 0
s   6 1.0 
    27032.3826310000         1.4645050749
     4052.3871392000         1.8244031008
      922.3272271000         2.8547160967
      261.2407098900         4.3654874290
       85.3546413500         5.8940772662
       31.0350352400         6.2963020147
s   1 1.0 
       12.2608607300         4.6698272139
s   1 1.0 
        4.9987076000         2.3826123703
s   1 1.0 
        1.1703108200         0.8019291632
s   1 1.0 
        0.4647474100        -0.4011648063
s   1 1.0 
        0.1850453600         0.2010799377
p   4 1.0 
       63.2749548000         3.0898340730
       14.6270493800         3.3923831935
        4.4501223500         2.9482801524
        1.5275799600         1.7113350234
p   1 1.0 
        0.5293511800         0.6436057935
p   1 1.0 
        0.1747842100         0.1610897223
d   1 1.0 
        2.3140000000        12.3767310624
d   1 1.0 
        0.6450000000         1.3234257612
f   1 1.0 
        1.4280000000        12.7097950062

[5D]
[7F]
[9G]
[MO]
 Sym=     1a
 Ene= -2.26144573492283E+03
 Spin= Alpha
 Occup= 1.000000
  1      -0.097624273798
  2      -0.105338027037
  3      -0.178974021645
  4      -0.301053485024
  5      -0.331949364368
  6      -0.165098034149
  7      -0.008758563560
  8      -0.003429654668
  9       0.002495155305
 10      -0.001654754020
 11       0.001112020229
 12      -0.000746610388
 13       0.000498133974
 14      -0.000336919471
 15       0.000238587205
 16      -0.000177830507
 17       0.000046199079
 18      -0.000010989419
 19       0.000000531267
 20       0.000000649236
 21       0.000000445070
 22      -0.000000612365
 23      -0.000000476642
 24      -0.000000392976
 25       0.000000457361
 26       0.000000499529
 27       0.000000356960
 28      -0.000000509845
 29      -0.000000636592
 30      -0.000000433181
 31       0.000000695796
 32       0.000000965601
 33       0.000000633991
 34      -0.000001060758
 35      -0.000001590378
 36      -0.000001018851
 37       0.000001803634
 38       0.000002774416
 39       0.000001763451
 40      -0.000003248317
 41      -0.000004909725
 42      -0.000003137488
 43       0.000006055920
 44       0.000008211932
 45       0.000005432942
 46      -0.000034359211
 47      -0.000017778701
 48      -0.000018081437
 49       0.000003968268
 50       0.000001144842
 51       0.000001686490
 52      -0.000000569846
 53       0.000000141949
 54      -0.000000106691
 55      -0.000000027827
 56      -0.000000016522
 57       0.000000176092
 58      -0.000000251158
 59       0.000000051282
 60      -0.000000122626
 61       0.000000077168
 62      -0.000000032250
 63       0.000000218226
 64      -0.000000121807
 65       0.000000374415
 66      -0.000000200170
 67      -0.000000178069
 68      -0.000000231486
 69       0.000000232667
 70      -0.000000823360
 71       0.000000423890
 72       0.000000504259
 73       0.000000329633
 74      -0.000000457214
 75       0.000001684473
 76      -0.000000867954
 77      -0.000001084665
 78      -0.000000599528
 79       0.000000898844
 80      -0.000003178473
 81       0.000001722053
 82       0.000001996186
 83       0.000001298341
 84      -0.000001619467
 85       0.000010975404
 86      -0.000008884876
 87      -0.000004991144
 88      -0.000010532369
 89       0.000003037359
 90      -0.000000178003
 91       0.000000332592
 92      -0.000000031506
 93       0.000000545715
 94       0.000000120571
 95      -0.000000229178
 96       0.000000073506
 97       0.000000180924
 98      -0.000000016584
 99      -0.000000158071
100       0.000000177248
101       0.000000048418
102       0.000000071470
103      -0.000000026686
104       0.000000064144
105       0.000000288337
106      -0.000000059813
107      -0.000001167143
108      -0.000000356731
109      -0.000000445272
110       0.000000264886
111      -0.000000386457
112      -0.000001908659
113       0.000000348386
114       0.000004094397
115       0.000001751110
116       0.000001223611
117      -0.000002088015
118       0.000000876652
119       0.000006807879
120      -0.000000636552
121      -0.000000149545
122       0.000000696514
123      -0.000001338548
124       0.000004137592
125       0.000007828896
126       0.000020224082
127       0.000000225124
128      -0.000000627235
129      -0.000000210456
130      -0.000000842650
131       0.000002124913
132       0.000000689187
133       0.000002971917
134      -0.000008863130
135      -0.000003036064
136      -0.000000038436
137      -0.000000088083
138       0.000000070895
139      -0.000000175549
140      -0.000000129350
141       0.000000580844
142       0.000000474984
143      -0.000000800755
144       0.000001284255
145       0.000001030046
146      -0.000000336300
147       0.000000064102
148      -0.000000246364
149      -0.000000345083
150      -0.000000299865
151      -0.000000522802
152       0.000000342147
153      -0.000000121372
154       0.000000541890
155      -0.000000989785
156       0.000004310979
157       0.000014128067
158       0.000056189452
159       0.000000273355
160       0.000000029830
161       0.000000094489
162       0.000002925125
163       0.000000018400
164       0.000000878066
165      -0.000020857612
166      -0.000001152604
167      -0.000006712803
168       0.000000245682
169      -0.000000304248
170      -0.000000050094
171      -0.000000443574
172      -0.000000027759
173      -0.000000014735
174      -0.000000093879
175       0.000000099135
176      -0.000000237013
177      -0.000000080768
178       0.000000361762
179       0.000000328594
180       0.000000001495
181      -0.000000526590
182      -0.000000032149
183       0.000000667108
184       0.000000062660
 Sym=     1a
 Ene= -3.88678015858505E+02
 Spin= Alpha
 Occup= 1.000000
  1      -0.037449105871
  2      -0.044754181182
  3      -0.076787544539
  4      -0.152416348184
  5      -0.201594515382
  6      -0.062877556471
  7       0.493327192000
  8       0.582343267295
  9       0.081787769511
 10       0.004940279504
 11      -0.004337213062
 12       0.003057484185
 13      -0.002169399788
 14       0.001511382744
 15      -0.001079844073
 16       0.000809286747
 17      -0.000210045045
 18       0.000050000259
 19       0.000006917531
 20      -0.000007868170
 21      -0.000001414081
 22       0.000009524283
 23      -0.000011220166
 24      -0.000002118682
 25       0.000005999524
 26      -0.000010263973
 27      -0.000002746178
 28      -0.000001907429
 29      -0.000001243239
 30      -0.000001114326
 31      -0.000000692964
 32      -0.000002985100
 33      -0.000001526684
 34       0.000003761313
 35       0.000006504715
 36       0.000003995664
 37      -0.000007490488
 38      -0.000012052572
 39      -0.000007558265
 40       0.000014577141
 41       0.000022020361
 42       0.000014074240
 43      -0.000028495184
 44      -0.000037453517
 45      -0.000025039124
 46       0.000157432004
 47       0.000081030604
 48       0.000082657781
 49      -0.000018196163
 50      -0.000005204630
 51      -0.000007713414
 52       0.000002620103
 53      -0.000000652283
 54       0.000000490737
 55       0.000006180027
 56       0.000001503155
 57      -0.000026314472
 58       0.000035017783
 59      -0.000005593361
 60       0.000001581890
 61      -0.000000669378
 62      -0.000003583774
 63       0.000003257312
 64      -0.000000681291
 65      -0.000001974297
 66       0.000001100385
 67       0.000001748268
 68       0.000000118872
 69      -0.000000627816
 70       0.000003842303
 71      -0.000002070148
 72      -0.000002726293
 73      -0.000001112986
 74       0.000001765918
 75      -0.000007804754
 76       0.000004099438
 77       0.000005116311
 78       0.000002737172
 79      -0.000004002636
 80       0.000014806524
 81      -0.000008227600
 82      -0.000009244698
 83      -0.000006358980
 84       0.000007312412
 85      -0.000050262903
 86       0.000040773596
 87       0.000022829746
 88       0.000048368856
 89      -0.000013817895
 90       0.000000830291
 91      -0.000001546169
 92       0.000000108503
 93      -0.000002485358
 94      -0.000000580830
 95       0.000001039247
 96      -0.000000327561
 97      -0.000000813474
 98       0.000000071997
 99       0.000000728816
100      -0.000000880450
101      -0.000000245767
102      -0.000000344548
103       0.000000135178
104      -0.000000297347
105      -0.000001405092
106       0.000000293278
107       0.000005543158
108       0.000001764913
109       0.000002066913
110      -0.000001414535
111       0.000001770566
112       0.000009078735
113      -0.000001580314
114      -0.000018787884
115      -0.000008062076
116      -0.000005601925
117       0.000009641272
118      -0.000004013051
119      -0.000031264205
120       0.000002898591
121       0.000000608826
122      -0.000003007842
123       0.000005983156
124      -0.000018815332
125      -0.000035542672
126      -0.000092152094
127      -0.000001039723
128       0.000002911945
129       0.000000978665
130       0.000003826236
131      -0.000009629779
132      -0.000003121065
133      -0.000013501977
134       0.000040377942
135       0.000013842595
136       0.000000200770
137       0.000000410174
138      -0.000000357730
139       0.000000841566
140       0.000000619718
141      -0.000002677551
142      -0.000002178362
143       0.000003690135
144      -0.000005905434
145      -0.000004734692
146       0.000001552684
147      -0.000000296069
148       0.000001135798
149       0.000001595757
150       0.000001380600
151       0.000002406873
152      -0.000001580252
153       0.000000494472
154      -0.000002335484
155       0.000004476503
156      -0.000020107493
157      -0.000065050655
158      -0.000256940491
159      -0.000001069992
160      -0.000000120766
161      -0.000000371624
162      -0.000013912228
163      -0.000000112069
164      -0.000004187055
165       0.000095286099
166       0.000005301342
167       0.000030682675
168      -0.000001094316
169       0.000001353067
170       0.000000224602
171       0.000001971266
172       0.000000121877
173      -0.000000123150
174       0.000000688712
175      -0.000000437476
176       0.000001486975
177       0.000000406247
178      -0.000001550654
179      -0.000001417968
180      -0.000000002928
181       0.000002264533
182       0.000000132437
183      -0.000002869033
184      -0.000000259043
 Sym=     1a
 Ene= -3.43625170404508E+02
 Spin= Alpha
 Occup= 1.000000
  1       0.000000702968
  2       0.000000805828
  3       0.000001548326
  4       0.000002487711
  5       0.000004717396
  6      -0.000001214662
  7      -0.000004071816
  8      -0.000013929463
  9       0.000001035379
 10      -0.000020540724
 11       0.000039011818
 12      -0.000060859423
 13       0.000098093341
 14      -0.000155449046
 15       0.000198761969
 16      -0.000245283945
 17      -0.000006278098
 18       0.000006164029
 19       0.349840297575
 20      -0.057611421617
 21       0.078259887988
 22       0.462006369047
 23      -0.076082166781
 24       0.103351932787
 25       0.287838515707
 26      -0.047400876308
 27       0.064390044937
 28       0.012926676733
 29      -0.002127780030
 30       0.002892141607
 31       0.005555787682
 32      -0.000917708984
 33       0.001241623806
 34      -0.003802438424
 35       0.000631746978
 36      -0.000848179349
 37       0.002314414651
 38      -0.000391646814
 39       0.000513140706
 40      -0.001458176042
 41       0.000258078684
 42      -0.000318353801
 43       0.000952631550
 44      -0.000181622779
 45       0.000202304163
 46      -0.000722326137
 47       0.000134238458
 48      -0.000155074155
 49       0.000217530667
 50      -0.000033009735
 51       0.000049920757
 52      -0.000063294072
 53       0.000008795120
 54      -0.000014878346
 55      -0.000002028510
 56      -0.000000270018
 57      -0.000000404263
 58       0.000001572252
 59      -0.000003861365
 60       0.000000561076
 61       0.000000445236
 62      -0.000000580996
 63       0.000000956554
 64       0.000001096895
 65       0.000001469238
 66      -0.000005538107
 67       0.000001634189
 68      -0.000009652427
 69      -0.000003701994
 70      -0.000004009031
 71       0.000012569094
 72      -0.000003833201
 73       0.000022518786
 74       0.000007239327
 75       0.000009446181
 76      -0.000027221462
 77       0.000008042136
 78      -0.000048909011
 79      -0.000014618605
 80      -0.000019170346
 81       0.000050184745
 82      -0.000013453403
 83       0.000089406305
 84       0.000025007058
 85       0.000028827114
 86      -0.000071947985
 87       0.000017199114
 88      -0.000126149265
 89      -0.000035010396
 90       0.000001402271
 91      -0.000008075648
 92       0.000001178546
 93      -0.000011915566
 94      -0.000007361023
 95      -0.000001090173
 96       0.000004233647
 97      -0.000001059733
 98       0.000007093093
 99       0.000003004913
100       0.000001279917
101       0.000002062289
102      -0.000001771274
103      -0.000003849989
104      -0.000004335647
105      -0.000001884421
106       0.000002708064
107      -0.000010570222
108      -0.000015558628
109       0.000004868069
110       0.000028067271
111       0.000008746824
112      -0.000017265128
113      -0.000008640201
114       0.000010111757
115       0.000016704920
116      -0.000006258287
117      -0.000031631653
118      -0.000011393499
119       0.000015717236
120       0.000011488837
121       0.000001172979
122      -0.000005856951
123       0.000011563657
124      -0.000033937609
125      -0.000049413293
126      -0.000100477796
127      -0.000001643006
128       0.000008436609
129       0.000003241813
130       0.000007174858
131      -0.000026845781
132      -0.000009738877
133      -0.000004705147
134       0.000040970152
135       0.000016716441
136       0.000001672615
137       0.000000271376
138      -0.000003169968
139       0.000003631454
140       0.000001008830
141      -0.000008703091
142      -0.000002411739
143       0.000014522220
144      -0.000017306562
145      -0.000007790255
146       0.000003592544
147       0.000000328073
148       0.000001065341
149       0.000005636857
150       0.000001431756
151       0.000001504038
152      -0.000006348258
153      -0.000000220619
154       0.000001158505
155      -0.000003281994
156       0.000049468641
157       0.000168573414
158       0.000381850057
159      -0.000000376610
160      -0.000000311958
161      -0.000000252336
162       0.000090926707
163       0.000006819550
164       0.000030068084
165      -0.000132826603
166      -0.000006296410
167      -0.000042301562
168       0.000003943441
169      -0.000005435042
170      -0.000000181391
171      -0.000008626290
172      -0.000000758522
173       0.000006513779
174      -0.000010407602
175      -0.000001456681
176      -0.000014283866
177      -0.000003793141
178       0.000008177625
179       0.000006602771
180       0.000000340562
181      -0.000011099775
182      -0.000001125222
183       0.000014223131
184       0.000002064588
 Sym=     1a
 Ene= -3.43622770189974E+02
 Spin= Alpha
 Occup= 1.000000
  1      -0.000000004935
  2      -0.000000006282
  3      -0.000000009034
  4      -0.000000024233
  5      -0.000000017615
  6      -0.000000030263
  7       0.000000127450
  8       0.000000005610
  9       0.000000108780
 10      -0.000000281304
 11       0.000000497358
 12      -0.000000798046
 13       0.000001263542
 14      -0.000001835516
 15       0.000002194466
 16      -0.000001921533
 17      -0.000000399503
 18       0.000000158541
 19      -0.094911409316
 20      -0.139760555641
 21       0.321391082608
 22      -0.125342273996
 23      -0.184571140265
 24       0.424436750204
 25      -0.078088039147
 26      -0.114987516083
 27       0.264423435641
 28      -0.003508511555
 29      -0.005166455362
 30       0.011880556909
 31      -0.001502341637
 32      -0.002212161105
 33       0.005087312216
 34       0.001022837900
 35       0.001505991917
 36      -0.003463624481
 37      -0.000611991958
 38      -0.000900850775
 39       0.002072438168
 40       0.000365797078
 41       0.000538035031
 42      -0.001238792698
 43      -0.000213708902
 44      -0.000313688199
 45       0.000723666479
 46       0.000117750244
 47       0.000171952411
 48      -0.000399030319
 49      -0.000054339766
 50      -0.000079997152
 51       0.000184003490
 52       0.000017375213
 53       0.000025618032
 54      -0.000058831848
 55      -0.000001282503
 56       0.000002145202
 57      -0.000002662633
 58      -0.000001864668
 59       0.000000045917
 60      -0.000000877140
 61      -0.000001146767
 62      -0.000000040771
 63       0.000000253786
 64       0.000000634197
 65      -0.000001177630
 66      -0.000000675509
 67      -0.000000704748
 68      -0.000000141553
 69       0.000000699862
 70       0.000001616775
 71       0.000001482949
 72       0.000000637162
 73      -0.000000144254
 74      -0.000001124237
 75      -0.000003297947
 76      -0.000003567105
 77      -0.000000937450
 78       0.000000616736
 79       0.000002425661
 80       0.000005058005
 81       0.000006120332
 82       0.000001037599
 83      -0.000001359485
 84      -0.000003909098
 85      -0.000001512539
 86      -0.000002245411
 87      -0.000000563826
 88       0.000000845347
 89       0.000001667819
 90      -0.000004641962
 91      -0.000003108308
 92      -0.000002346578
 93      -0.000000335703
 94       0.000002733339
 95       0.000001253226
 96       0.000000888945
 97       0.000000623889
 98       0.000000055159
 99      -0.000000768930
100       0.000000415885
101      -0.000000502438
102      -0.000004176331
103       0.000001658478
104       0.000000421657
105       0.000001253717
106       0.000001251140
107      -0.000003164488
108       0.000004970523
109       0.000003444990
110       0.000002775850
111      -0.000002166008
112       0.000001067633
113       0.000001497718
114       0.000002359576
115      -0.000002672901
116      -0.000002695649
117      -0.000001222616
118       0.000001968110
119      -0.000000630554
120      -0.000000447022
121      -0.000000015671
122       0.000000078375
123      -0.000000155322
124       0.000000467994
125       0.000000765239
126       0.000001703338
127      -0.000000326109
128      -0.000000643535
129       0.000001201644
130       0.000000228630
131       0.000000854866
132      -0.000001085515
133      -0.000001674177
134      -0.000003600133
135       0.000006414349
136      -0.000001161147
137       0.000000824117
138      -0.000001603164
139      -0.000001069329
140       0.000000256166
141       0.000003498454
142      -0.000002418577
143       0.000004690467
144       0.000003260632
145      -0.000000694586
146       0.000001837153
147       0.000001161651
148      -0.000004240808
149       0.000001811651
150       0.000002863137
151      -0.000000291828
152       0.000002680598
153      -0.000000000025
154      -0.000000000047
155      -0.000000000998
156       0.000000076441
157       0.000000331589
158       0.000000637331
159      -0.000000630793
160      -0.000000931918
161       0.000002156293
162       0.000003109702
163       0.000004316740
164      -0.000009912071
165      -0.000004262107
166      -0.000005860827
167       0.000013444704
168      -0.000000773051
169      -0.000001293664
170       0.000000117330
171       0.000000365372
172       0.000000639714
173       0.000007080185
174       0.000011551079
175      -0.000001101620
176      -0.000003509686
177      -0.000005770586
178       0.000001530480
179      -0.000003443202
180      -0.000000401392
181      -0.000002719721
182       0.000000627789
183      -0.000000990481
184      -0.000001852635
 Sym=     1a
 Ene= -3.43610320947892E+02
 Spin= Alpha
 Occup= 1.000000
  1      -0.000001049831
  2      -0.000001314197
  3      -0.000001987906
  4      -0.000004913833
  5      -0.000004299358
  6      -0.000005080607
  7       0.000023553958
  8       0.000005337846
  9       0.000017389109
 10      -0.000043691596
 11       0.000076898999
 12      -0.000123619004
 13       0.000195467663
 14      -0.000282340562
 15       0.000336584665
 16      -0.000287199892
 17      -0.000064716214
 18       0.000025349168
 19       0.020871588489
 20       0.330136037485
 21       0.149727087575
 22       0.027564370810
 23       0.435987683672
 24       0.197734345767
 25       0.017170385907
 26       0.271589939525
 27       0.123174646152
 28       0.000770288977
 29       0.012167539562
 30       0.005518607828
 31       0.000328711834
 32       0.005246825038
 33       0.002378832111
 34      -0.000220805636
 35      -0.003589360569
 36      -0.001626290496
 37       0.000125746680
 38       0.002183699939
 39       0.000987121377
 40      -0.000061525309
 41      -0.001369950009
 42      -0.000614584553
 43       0.000009997902
 44       0.000890083253
 45       0.000391023925
 46       0.000022276712
 47      -0.000635887583
 48      -0.000271520537
 49       0.000009290296
 50       0.000192171295
 51       0.000086329115
 52      -0.000004269010
 53      -0.000055559605
 54      -0.000025386002
 55       0.000001385413
 56       0.000001004821
 57      -0.000002321074
 58       0.000003545719
 59       0.000002021062
 60      -0.000001301316
 61      -0.000001121666
 62       0.000001010156
 63      -0.000001859868
 64      -0.000002904147
 65       0.000004071164
 66       0.000000571517
 67      -0.000005676981
 68       0.000005901054
 69       0.000003622202
 70      -0.000008856184
 71      -0.000001376705
 72       0.000011805102
 73      -0.000012221027
 74      -0.000008409989
 75       0.000018071891
 76       0.000002948007
 77      -0.000024355512
 78       0.000025460115
 79       0.000017164768
 80      -0.000030061248
 81      -0.000006795304
 82       0.000041586529
 83      -0.000046025545
 84      -0.000030298093
 85       0.000050075019
 86       0.000014983845
 87      -0.000065019026
 88       0.000075027543
 89       0.000058039625
 90       0.000004084608
 91      -0.000002199310
 92      -0.000009994760
 93       0.000008696940
 94      -0.000002732734
 95      -0.000003083043
 96       0.000000151552
 97       0.000004929785
 98      -0.000004667977
 99      -0.000001582668
100       0.000004908316
101      -0.000000453923
102       0.000002103547
103       0.000005388590
104       0.000000933942
105       0.000002777177
106      -0.000004613873
107      -0.000016836921
108       0.000003896075
109      -0.000010843824
110      -0.000012984303
111      -0.000007423935
112      -0.000019999929
113       0.000008507622
114       0.000024495991
115      -0.000005844868
116       0.000016593686
117       0.000024961685
118       0.000015457506
119       0.000030440872
120      -0.000020157250
121      -0.000002696488
122       0.000013487996
123      -0.000026740109
124       0.000080630114
125       0.000131468830
126       0.000292926976
127       0.000006821242
128      -0.000017059420
129      -0.000005526362
130      -0.000021481042
131       0.000056835800
132       0.000018758733
133       0.000049314482
134      -0.000115980530
135      -0.000036683454
136      -0.000003597110
137      -0.000001706546
138       0.000004228584
139      -0.000005474945
140      -0.000005274932
141       0.000019357302
142       0.000009133996
143      -0.000024219875
144       0.000031517179
145       0.000027357628
146      -0.000006336670
147       0.000002357389
148      -0.000005631231
149      -0.000006188606
150      -0.000006236151
151      -0.000011179759
152       0.000004597412
153       0.000000026053
154      -0.000000166285
155       0.000000271455
156       0.000006458670
157       0.000033960562
158       0.000058360721
159       0.000001326729
160       0.000002875789
161       0.000001649892
162       0.000014767740
163      -0.000012881198
164      -0.000001228237
165      -0.000025617030
166       0.000016987119
167      -0.000000209792
168       0.000001591817
169      -0.000002292856
170      -0.000001024960
171      -0.000002282262
172      -0.000001059163
173      -0.000000220497
174       0.000005733852
175       0.000005771460
176      -0.000001149360
177       0.000010861584
178       0.000002977689
179       0.000001261821
180       0.000000480453
181      -0.000004544304
182      -0.000001869191
183       0.000004090742
184       0.000003674918
 Sym=     1a
 Ene= -9.01164243405158E+01
 Spin= Alpha
 Occup= 1.000000
  1      -0.017725547563
  2      -0.021495859420
  3      -0.037163061357
  4      -0.075213335801
  5      -0.104599910343
  6      -0.026389641611
  7       0.390813398788
  8       0.685520976149
  9      -0.509599244998
 10      -0.875678504788
 11      -0.019655506674
 12      -0.039404035561
 13       0.026765835730
 14      -0.018644904559
 15       0.013513981374
 16      -0.010168082892
 17       0.002643640642
 18      -0.000630248749
 19      -0.000003633539
 20      -0.000054703299
 21      -0.000025196012
 22      -0.000002266719
 23      -0.000080457399
 24      -0.000036144112
 25      -0.000007843408
 26      -0.000008918331
 27      -0.000006265346
 28      -0.000002855101
 29       0.000188310453
 30       0.000082147325
 31       0.000061478974
 32       0.000175276495
 33       0.000095616402
 34      -0.000062423426
 35      -0.000092833842
 36      -0.000059597487
 37       0.000100977200
 38       0.000154745212
 39       0.000098456955
 40      -0.000196081645
 41      -0.000275124312
 42      -0.000179988747
 43       0.000374867774
 44       0.000463263333
 45       0.000316371389
 46      -0.002002253088
 47      -0.001011266254
 48      -0.001042722390
 49       0.000232859346
 50       0.000066178784
 51       0.000098519023
 52      -0.000033850929
 53       0.000007900342
 54      -0.000006572484