[Molden Format]
[Title]
 Molden file created by orca_2mkl for BaseName=/home/nikolayandreadi_2125/_scratch/F2_cc/Dy_F2_cc

[Atoms] AU
Dy   1  66         -0.2423762739        -0.3092839174        -1.4862034639 
F    2   9         -1.9588712132         2.9078595523        -0.6361895311 
F    3   9          3.3761866006        -0.9369659014        -0.7555918768 
[GTO]
  1 0
s   6 1.0 
  1205955.4869470000      2343.1624566555
   535980.2164210000      -627.7994472729
   238213.4295200000      1364.0035146170
   105872.6353420000       302.4256254711
    47054.5045970000       818.7689739381
    20913.1131540000       608.0650635993
s   1 1.0 
     9294.7169570000       674.6635063570
s   1 1.0 
     4130.9853140000       367.2402974633
s   1 1.0 
     1835.9934730000       199.9002981809
s   1 1.0 
      815.9970990000       108.8119399830
s   1 1.0 
      362.6653770000        59.2297179326
s   1 1.0 
      161.1846120000        32.2405747875
s   1 1.0 
       71.6376050000        17.5495459929
s   1 1.0 
       31.8389360000         9.5527629667
s   1 1.0 
       14.1506380000         5.1998654726
s   1 1.0 
        6.2891720000         2.8304481031
s   1 1.0 
        2.7951880000         1.5407009828
s   1 1.0 
        1.2423060000         0.8386515023
s   1 1.0 
        0.5521360000         0.4565040562
s   1 1.0 
        0.2453940000         0.2484895028
s   1 1.0 
        0.1090640000         0.1352605530
s   1 1.0 
        0.0484730000         0.0736266459
s   1 1.0 
        0.0215430000         0.0400764947
p   5 1.0 
    16500.5200280000      3551.8560429283
     6600.2080110000      1399.7999583687
     2640.0832040000      2214.2919302472
     1056.0332820000      2141.5505502747
      422.4133130000      2025.6781866708
p   1 1.0 
      168.9653250000       868.3345329533
p   1 1.0 
       67.5861300000       276.2244147341
p   1 1.0 
       27.0344520000        87.8692766435
p   1 1.0 
       10.8137810000        27.9519461152
p   1 1.0 
        4.3255120000         8.8917447952
p   1 1.0 
        1.7302050000         2.8285381540
p   1 1.0 
        0.6920820000         0.8997814396
p   1 1.0 
        0.2768330000         0.2862281950
p   1 1.0 
        0.1107330000         0.0910513565
p   1 1.0 
        0.0442930000         0.0289640280
p   1 1.0 
        0.0177170000         0.0092135674
d   4 1.0 
     1185.0486620000      5578.8882618905
      430.9267860000      5315.6245441556
      156.7006500000      4970.6577614337
       56.9820540000      2696.5017083068
d   1 1.0 
       20.7207470000       573.6929957731
d   1 1.0 
        7.5348170000        97.6893734623
d   1 1.0 
        2.7399330000        16.6347004211
d   1 1.0 
        0.9963390000         2.8325824609
d   1 1.0 
        0.3623050000         0.4823365324
d   1 1.0 
        0.1317470000         0.0821327509
d   1 1.0 
        0.0479080000         0.0139856983
d   1 1.0 
        0.0174210000         0.0023814857
f   4 1.0 
       33.8369440000      1676.3832547388
       11.2789810000       461.3524932850
        3.7596600000        58.3481478782
        1.2532200000         3.4646432581
f   1 1.0 
        0.4177400000         0.7999055676
f   1 1.0 
        0.1392470000         0.0675333410

  2 0
s   6 1.0 
    35479.1004410000         1.9229128581
     5318.4728983000         2.2734773358
     1210.4810975000         3.4747482552
      342.8551814000         5.2879612972
      112.0194318100         7.1666332516
       40.7147402500         7.7556346254
s   1 1.0 
       16.0396781100         5.7122450312
s   1 1.0 
        6.5038186700         2.9025947842
s   1 1.0 
        1.5440477500         0.9872011154
s   1 1.0 
        0.6122345300        -0.4932856223
s   1 1.0 
        0.2402798000         0.2445952611
p   4 1.0 
       80.2339004800         4.2755032106
       18.5940107400         4.7314752302
        5.6867902700         4.0864798013
        1.9511006300         2.2989954518
p   1 1.0 
        0.6697021100         0.8635593126
p   1 1.0 
        0.2165130000         0.2105208234
d   1 1.0 
        3.1070000000        20.7284714039
d   1 1.0 
        0.8550000000         2.1672588463
f   1 1.0 
        1.9170000000        24.6547062912

  3 0
s   6 1.0 
    35479.1004410000         1.9229128581
     5318.4728983000         2.2734773358
     1210.4810975000         3.4747482552
      342.8551814000         5.2879612972
      112.0194318100         7.1666332516
       40.7147402500         7.7556346254
s   1 1.0 
       16.0396781100         5.7122450312
s   1 1.0 
        6.5038186700         2.9025947842
s   1 1.0 
        1.5440477500         0.9872011154
s   1 1.0 
        0.6122345300        -0.4932856223
s   1 1.0 
        0.2402798000         0.2445952611
p   4 1.0 
       80.2339004800         4.2755032106
       18.5940107400         4.7314752302
        5.6867902700         4.0864798013
        1.9511006300         2.2989954518
p   1 1.0 
        0.6697021100         0.8635593126
p   1 1.0 
        0.2165130000         0.2105208234
d   1 1.0 
        3.1070000000        20.7284714039
d   1 1.0 
        0.8550000000         2.1672588463
f   1 1.0 
        1.9170000000        24.6547062912

[5D]
[7F]
[9G]
[MO]
 Sym=     1a
 Ene= -1.98380750291028E+03
 Spin= Alpha
 Occup= 1.000000
  1      -0.090385360062
  2      -0.100327735216
  3      -0.175631515402
  4      -0.300263407233
  5      -0.338092893049
  6      -0.169988397181
  7      -0.009706501687
  8      -0.003289630431
  9       0.002394744354
 10      -0.001582193857
 11       0.001063513630
 12      -0.000712403226
 13       0.000471233747
 14      -0.000311573623
 15       0.000205987298
 16      -0.000127997762
 17       0.000049156056
 18      -0.000012797174
 19       0.000000046139
 20       0.000000063501
 21       0.000000039401
 22      -0.000000111677
 23      -0.000000150943
 24      -0.000000092651
 25       0.000000098556
 26       0.000000133800
 27       0.000000082020
 28      -0.000000191188
 29      -0.000000260010
 30      -0.000000158932
 31       0.000000332072
 32       0.000000451805
 33       0.000000275938
 34      -0.000000565774
 35      -0.000000769978
 36      -0.000000470112
 37       0.000001018012
 38       0.000001385682
 39       0.000000845916
 40      -0.000001772253
 41      -0.000002412937
 42      -0.000001472850
 43       0.000002684935
 44       0.000003655370
 45       0.000002231245
 46      -0.000005402104
 47      -0.000007356913
 48      -0.000004490208
 49       0.000000976419
 50       0.000001329740
 51       0.000000811597
 52      -0.000000189330
 53      -0.000000257936
 54      -0.000000157410
 55      -0.000000053102
 56       0.000000101779
 57       0.000000158153
 58      -0.000000056801
 59       0.000000179645
 60      -0.000000102315
 61      -0.000000047057
 62      -0.000000064923
 63       0.000000092044
 64      -0.000000279677
 65       0.000000323546
 66      -0.000000016499
 67      -0.000000046560
 68      -0.000000154012
 69       0.000000458566
 70      -0.000000717318
 71       0.000000098863
 72       0.000000199052
 73       0.000000289548
 74      -0.000000855497
 75       0.000001438331
 76      -0.000000228150
 77      -0.000000445523
 78      -0.000000555496
 79       0.000001637727
 80      -0.000002284633
 81       0.000000363140
 82       0.000000710996
 83       0.000000881136
 84      -0.000002597791
 85       0.000005674201
 86      -0.000000887931
 87      -0.000001749809
 88      -0.000002198858
 89       0.000006484061
 90      -0.000000564514
 91       0.000000104034
 92       0.000000194386
 93       0.000000206731
 94      -0.000000607333
 95       0.000000075274
 96      -0.000000015001
 97      -0.000000027360
 98      -0.000000026681
 99       0.000000078282
100       0.000000119731
101       0.000000055504
102       0.000000063059
103      -0.000000022705
104       0.000000096612
105       0.000000282498
106      -0.000000090517
107      -0.000000628455
108      -0.000000292264
109      -0.000000332167
110       0.000000120586
111      -0.000000512257
112      -0.000001490862
113       0.000000477720
114       0.000001729433
115       0.000000815552
116       0.000000926149
117      -0.000000348146
118       0.000001465403
119       0.000004190284
120      -0.000001343428
121      -0.000000156385
122       0.000000720384
123      -0.000001365481
124       0.000003970816
125       0.000007746272
126       0.000013976687
127       0.000000320502
128      -0.000000605919
129      -0.000000160860
130      -0.000001461527
131       0.000002775416
132       0.000000738586
133       0.000002084195
134      -0.000004406352
135      -0.000001237094
136      -0.000000140100
137      -0.000000026077
138       0.000000101626
139      -0.000000094253
140      -0.000000185462
141       0.000000799218
142       0.000000249810
143      -0.000000606188
144       0.000000702650
145       0.000001183531
146      -0.000000057442
147       0.000000029955
148      -0.000000062487
149      -0.000000039357
150      -0.000000049951
151      -0.000000115115
152       0.000000015098
153      -0.000000156453
154       0.000000720675
155      -0.000001365960
156       0.000003971076
157       0.000007744805
158       0.000013974064
159      -0.000000680979
160       0.000000115649
161      -0.000000138503
162       0.000003114902
163      -0.000000523173
164       0.000000635933
165      -0.000004874075
166       0.000000608370
167      -0.000001081259
168      -0.000000144968
169       0.000000090026
170       0.000000011351
171       0.000000190196
172      -0.000000093734
173       0.000000832015
174      -0.000000563584
175       0.000000026806
176      -0.000001290167
177       0.000000539294
178      -0.000000051903
179      -0.000000076246
180       0.000000010346
181       0.000000053463
182      -0.000000014303
183      -0.000000105388
184       0.000000055405
 Sym=     1a
 Ene= -3.35531468750701E+02
 Spin= Alpha
 Occup= 1.000000
  1      -0.034048086874
  2      -0.041711806978
  3      -0.073951848268
  4      -0.149188690417
  5      -0.204273107808
  6      -0.077414080093
  7       0.476795842502
  8       0.596808181564
  9       0.092684581370
 10       0.004376576549
 11      -0.003857340890
 12       0.002729524363
 13      -0.001945916089
 14       0.001331977396
 15      -0.000887950268
 16       0.000554711227
 17      -0.000213508495
 18       0.000055660705
 19       0.000002944527
 20       0.000003911344
 21       0.000002382209
 22       0.000004692660
 23       0.000006257124
 24       0.000003810554
 25       0.000003730477
 26       0.000004987496
 27       0.000003033789
 28      -0.000000340956
 29      -0.000000496933
 30      -0.000000304035
 31      -0.000000504812
 32      -0.000000682731
 33      -0.000000417029
 34       0.000002115895
 35       0.000002877884
 36       0.000001757015
 37      -0.000004252734
 38      -0.000005788422
 39      -0.000003533281
 40       0.000007588110
 41       0.000010333352
 42       0.000006306885
 43      -0.000011737033
 44      -0.000015981509
 45      -0.000009754694
 46       0.000023455562
 47       0.000031945560
 48       0.000019497087
 49      -0.000004225490
 50      -0.000005754759
 51      -0.000003512298
 52       0.000000819275
 53       0.000001116192
 54       0.000000681162
 55       0.000010336260
 56      -0.000014793292
 57      -0.000023170313
 58       0.000006892156
 59      -0.000022047885
 60       0.000000634321
 61      -0.000001648367
 62      -0.000002540485
 63       0.000001027947
 64      -0.000003253583
 65      -0.000000889613
 66       0.000000416754
 67       0.000000700769
 68       0.000000115913
 69      -0.000000297322
 70       0.000002697801
 71      -0.000000571834
 72      -0.000001057944
 73      -0.000000923075
 74       0.000002697818
 75      -0.000006204412
 76       0.000001070788
 77       0.000002053092
 78       0.000002324698
 79      -0.000006841374
 80       0.000010031638
 81      -0.000001649930
 82      -0.000003206044
 83      -0.000003822775
 84       0.000011263897
 85      -0.000024630811
 86       0.000003876946
 87       0.000007631525
 88       0.000009525275
 89      -0.000028086824
 90       0.000002437209
 91      -0.000000460224
 92      -0.000000856055
 93      -0.000000883407
 94       0.000002593584
 95      -0.000000323323
 96       0.000000068085
 97       0.000000123088
 98       0.000000111596
 99      -0.000000326835
100      -0.000000612437
101      -0.000000275902
102      -0.000000313842
103       0.000000105320
104      -0.000000453960
105      -0.000001382867
106       0.000000442759
107       0.000002878880
108       0.000001332464
109       0.000001514751
110      -0.000000543494
111       0.000002314972
112       0.000006780326
113      -0.000002172262
114      -0.000007563442
115      -0.000003564112
116      -0.000004047662
117       0.000001518788
118      -0.000006396200
119      -0.000018305942
120       0.000005868786
121       0.000000573215
122      -0.000002875142
123       0.000005733020
124      -0.000017169930
125      -0.000033411433
126      -0.000060512375
127      -0.000001434446
128       0.000002711222
129       0.000000719628
130       0.000006363558
131      -0.000012071302
132      -0.000003210375
133      -0.000009007698
134       0.000019036821
135       0.000005343383
136       0.000000643392
137       0.000000130127
138      -0.000000468058
139       0.000000447856
140       0.000000865589
141      -0.000003552715
142      -0.000001121052
143       0.000002692530
144      -0.000003133734
145      -0.000005277799
146       0.000000272496
147      -0.000000147641
148       0.000000302717
149       0.000000186610
150       0.000000244930
151       0.000000558991
152      -0.000000067479
153       0.000000573415
154      -0.000002876101
155       0.000005734608
156      -0.000017169926
157      -0.000033403473
158      -0.000060499046
159       0.000003046851
160      -0.000000517751
161       0.000000619611
162      -0.000013549048
163       0.000002281775
164      -0.000002763759
165       0.000021058035
166      -0.000002631418
167       0.000004670525
168       0.000000666138
169      -0.000000417361
170      -0.000000042356
171      -0.000000893433
172       0.000000432843
173      -0.000003698485
174       0.000002506014
175      -0.000000130067
176       0.000005752457
177      -0.000002404628
178       0.000000245443
179       0.000000369439
180      -0.000000052418
181      -0.000000257463
182       0.000000073658
183       0.000000507829
184      -0.000000273735
 Sym=     1a
 Ene= -2.98362178169357E+02
 Spin= Alpha
 Occup= 1.000000
  1       0.000000004213
  2       0.000000005021
  3       0.000000009765
  4       0.000000016900
  5       0.000000030567
  6      -0.000000004470
  7      -0.000000046452
  8      -0.000000088166
  9       0.000000042326
 10      -0.000000120897
 11       0.000000215987
 12      -0.000000351577
 13       0.000000569790
 14      -0.000000802438
 15       0.000000703351
 16      -0.000000198287
 17      -0.000000083665
 18       0.000000023662
 19       0.028207884166
 20       0.171939014284
 21      -0.311858641036
 22       0.037873225415
 23       0.230847209979
 24      -0.418706057589
 25       0.023915246706
 26       0.145776543755
 27      -0.264405246876
 28       0.001191292440
 29       0.007254638348
 30      -0.013159633680
 31       0.000440952547
 32       0.002706071304
 33      -0.004904573063
 34      -0.000297661885
 35      -0.001854445940
 36       0.003355605069
 37       0.000170089982
 38       0.001112443724
 39      -0.002002722847
 40      -0.000088538398
 41      -0.000673953139
 42       0.001195777409
 43       0.000038732209
 44       0.000401759448
 45      -0.000695848793
 46      -0.000024883935
 47      -0.000219851397
 48       0.000385226686
 49       0.000017531524
 50       0.000099007199
 51      -0.000181125318
 52      -0.000005661987
 53      -0.000031441475
 54       0.000057634212
 55      -0.000001827983
 56      -0.000001163743
 57      -0.000001162896
 58      -0.000000774498
 59       0.000000878821
 60       0.000000639641
 61       0.000000249845
 62       0.000000520854
 63      -0.000000090028
 64      -0.000000423313
 65       0.000000423475
 66       0.000000837612
 67      -0.000000173679
 68       0.000001568114
 69       0.000000260688
 70      -0.000000679435
 71      -0.000001908521
 72       0.000000714753
 73      -0.000003900820
 74      -0.000000877152
 75       0.000001325948
 76       0.000004060421
 77      -0.000001653598
 78       0.000008428245
 79       0.000001981383
 80      -0.000001880305
 81      -0.000006195971
 82       0.000002685999
 83      -0.000013020237
 84      -0.000003168685
 85       0.000001821990
 86       0.000002702680
 87      -0.000000060429
 88       0.000004583410
 89       0.000000416576
 90       0.000001568982
 91       0.000001755581
 92       0.000000402504
 93       0.000002544655
 94      -0.000000125959
 95      -0.000000495436
 96      -0.000000570343
 97      -0.000000114653
 98      -0.000000842605
 99       0.000000026726
100      -0.000000133933
101       0.000001222981
102       0.000003759164
103       0.000000984855
104       0.000001361351
105      -0.000001246746
106       0.000000294717
107       0.000002077289
108       0.000002945282
109      -0.000005373777
110      -0.000004324512
111       0.000000744136
112      -0.000001643234
113      -0.000001824275
114      -0.000003285324
115      -0.000001089142
116       0.000004128007
117       0.000002926410
118      -0.000002830651
119       0.000002366733
120       0.000001136935
121      -0.000000270142
122       0.000001398869
123      -0.000002859787
124       0.000008771412
125       0.000011985368
126       0.000007845342
127       0.000001654671
128      -0.000001580593
129      -0.000002670822
130      -0.000006316865
131       0.000007964672
132       0.000007863885
133       0.000001160717
134       0.000004199705
135      -0.000009108552
136       0.000000464037
137      -0.000001776249
138       0.000002732302
139       0.000000464465
140      -0.000001017401
141      -0.000000089730
142       0.000006050287
143      -0.000009538878
144       0.000000067824
145       0.000005327311
146      -0.000001921667
147      -0.000000720340
148       0.000001821397
149      -0.000001203614
150      -0.000002561842
151       0.000000244899
152      -0.000001181303
153       0.000000262025
154      -0.000001357002
155       0.000002774905
156      -0.000008516854
157      -0.000011636925
158      -0.000007600064
159       0.000003112630
160       0.000000535499
161      -0.000001403730
162      -0.000012245052
163      -0.000000628021
164       0.000002716345
165       0.000001575638
166       0.000004789760
167      -0.000008748215
168       0.000001515840
169       0.000001965728
170      -0.000000662276
171      -0.000002180325
172      -0.000000776794
173      -0.000006072740
174      -0.000005026784
175       0.000001853633
176       0.000009191475
177       0.000001554100
178      -0.000001554259
179       0.000002144326
180       0.000000014623
181       0.000001873158
182      -0.000001338681
183       0.000001876301
184       0.000001073427
 Sym=     1a
 Ene= -2.98361060379770E+02
 Spin= Alpha
 Occup= 1.000000
  1      -0.000000015256
  2      -0.000000018255
  3      -0.000000034937
  4      -0.000000062004
  5      -0.000000107074
  6       0.000000006903
  7       0.000000159798
  8       0.000000334228
  9      -0.000000108422
 10       0.000000345726
 11      -0.000000636962
 12       0.000001021991
 13      -0.000001640256
 14       0.000002297109
 15      -0.000002122272
 16       0.000000860001
 17       0.000000193582
 18      -0.000000064527
 19      -0.304115594969
 20       0.174406452801
 21       0.068648399360
 22      -0.408306047476
 23       0.234157743868
 24       0.092168355084
 25      -0.257839684687
 26       0.147868116435
 27       0.058202052781
 28      -0.012825193107
 29       0.007354413993
 30       0.002896059124
 31      -0.004796452397
 32       0.002752551070
 33       0.001080008373
 34       0.003301378870
 35      -0.001897354083
 36      -0.000739309916
 37      -0.002007674688
 38       0.001159033386
 39       0.000442024290
 40       0.001263012112
 41      -0.000737912154
 42      -0.000265280889
 43      -0.000798113364
 44       0.000474467481
 45       0.000155695281
 46       0.000425060398
 47      -0.000250544466
 48      -0.000085783703
 49      -0.000171041383
 50       0.000097262067
 51       0.000039736630
 52       0.000054007339
 53      -0.000030654445
 54      -0.000012637119
 55       0.000000436298
 56      -0.000000623690
 57       0.000000864417
 58      -0.000001929119
 59      -0.000000853219
 60      -0.000000108466
 61      -0.000000503307
 62       0.000000254604
 63      -0.000001106648
 64      -0.000000255369
 65      -0.000000250580
 66       0.000002912933
 67      -0.000002348152
 68       0.000007229351
 69       0.000002346329
 70       0.000000548486
 71      -0.000007429788
 72       0.000005888031
 73      -0.000018341356
 74      -0.000005906419
 75      -0.000001157238
 76       0.000016121118
 77      -0.000012741484
 78       0.000039765930
 79       0.000012789086
 80       0.000001756945
 81      -0.000024990364
 82       0.000019713539
 83      -0.000061609685
 84      -0.000019785406
 85      -0.000000921573
 86       0.000008263291
 87      -0.000006741688
 88       0.000020621325
 89       0.000006678465
 90      -0.000000546693
 91       0.000004268752
 92      -0.000003645146
 93       0.000010779349
 94       0.000003666687
 95       0.000000178488
 96      -0.000001426822
 97       0.000001211143
 98      -0.000003596841
 99      -0.000001217080
100       0.000000403442
101      -0.000004913176
102       0.000002367703
103       0.000005478242
104       0.000002013979
105       0.000000045136
106      -0.000000314370
107      -0.000001535550
108       0.000021648073
109      -0.000014151882
110      -0.000016755298
111      -0.000007086096
112      -0.000002268347
113      -0.000010398886
114       0.000001268991
115      -0.000012402644
116       0.000007849219
117       0.000007618049
118       0.000003945701
119       0.000001680971
120       0.000008164918
121      -0.000001279686
122       0.000006627682
123      -0.000013554007
124       0.000041616408
125       0.000056876903
126       0.000037112424
127       0.000005083558
128      -0.000011573177
129      -0.000002843918
130      -0.000022927513
131       0.000048252281
132       0.000012210246
133      -0.000006975514
134       0.000001626434
135       0.000001065402
136      -0.000003033132
137      -0.000001029818
138       0.000002472048
139      -0.000004507249
140      -0.000004223053
141       0.000015811530
142       0.000005951195
143      -0.000012877189
144       0.000021054478
145       0.000023398639
146      -0.000000946203
147       0.000000364765
148      -0.000001410036
149      -0.000001359273
150      -0.000000592438
151      -0.000001956662
152       0.000002074982
153       0.000001305019
154      -0.000006757848
155       0.000013815889
156      -0.000042379428
157      -0.000057951255
158      -0.000038133084
159       0.000012659029
160      -0.000001642094
161       0.000003293174
162      -0.000053661782
163       0.000007867994
164      -0.000012728295
165      -0.000004707926
166       0.000004398888
167       0.000002815175
168       0.000002864844
169      -0.000003383052
170       0.000000508453
171      -0.000005906149
172       0.000001234738
173      -0.000015701795
174       0.000015588546
175      -0.000002439055
176       0.000030484565
177      -0.000008027359
178       0.000001586411
179       0.000000833853
180       0.000000091400
181      -0.000002191193
182       0.000000281346
183       0.000002301538
184       0.000000056155
 Sym=     1a
 Ene= -2.98351762994603E+02
 Spin= Alpha
 Occup= 1.000000
  1      -0.000000618375
  2      -0.000000726020
  3      -0.000001468594
  4      -0.000002361319
  5      -0.000004790537
  6       0.000001485005
  7       0.000005153346
  8       0.000014098013
  9      -0.000007905116
 10       0.000025225705
 11      -0.000045496930
 12       0.000073624135
 13      -0.000118900208
 14       0.000167154050
 15      -0.000149740375
 16       0.000049857474
 17       0.000016088988
 18      -0.000004837270
 19      -0.185301293048
 20      -0.260076198921
 21      -0.160150110468
 22      -0.248789172448
 23      -0.349183360431
 24      -0.215020682254
 25      -0.157088939471
 26      -0.220479334267
 27      -0.135767089542
 28      -0.007802109697
 29      -0.010950437985
 30      -0.006743113966
 31      -0.002919626212
 32      -0.004098033870
 33      -0.002523395829
 34       0.002000800385
 35       0.002808739820
 36       0.001729363719
 37      -0.001201766427
 38      -0.001687761681
 39      -0.001038902337
 40       0.000730960296
 41       0.001027786393
 42       0.000632195619
 43      -0.000438669621
 44      -0.000617972319
 45      -0.000379673360
 46       0.000241865047
 47       0.000340227973
 48       0.000209147171
 49      -0.000107421136
 50      -0.000150605495
 51      -0.000092777725
 52       0.000034024810
 53       0.000047700204
 54       0.000029387921
 55       0.000001162030
 56      -0.000001336460
 57      -0.000001864009
 58       0.000000440307
 59      -0.000001423996
 60       0.000000442407
 61       0.000000364052
 62       0.000000414790
 63      -0.000000480424
 64       0.000001522166
 65      -0.000003130054
 66       0.000000639534
 67       0.000001248201
 68       0.000000972773
 69      -0.000003158677
 70       0.000007786500
 71      -0.000001583906
 72      -0.000003094007
 73      -0.000002416678
 74       0.000007872010
 75      -0.000016797105
 76       0.000003443295
 77       0.000006708487
 78       0.000005190205
 79      -0.000016915230
 80       0.000026311342
 81      -0.000005239490
 82      -0.000010299643
 83      -0.000008256111
 84       0.000026869163
 85      -0.000012274197
 86       0.000002824350
 87       0.000005194593
 88       0.000003733471
 89      -0.000011719985
 90      -0.000003739115
 91       0.000001485480
 92       0.000002463700
 93       0.000000569015
 94      -0.000002038871
 95       0.000001314829
 96      -0.000000493270
 97      -0.000000825291
 98      -0.000000226474
 99       0.000000788019
100      -0.000004089881
101      -0.000000872416
102      -0.000001034592
103      -0.000000805479
104       0.000001485634
105      -0.000002075324
106       0.000000590132
107       0.000012061327
108       0.000004789771
109       0.000005940515
110      -0.000001303612
111       0.000007315145
112       0.000024480439
113      -0.000007661378
114      -0.000008021843
115      -0.000003184498
116      -0.000003892522
117       0.000000892451
118      -0.000004720065
119      -0.000016042373
120       0.000005003566
121       0.000000889683
122      -0.000004582757
123       0.000009268711
124      -0.000027544181
125      -0.000038201409
126      -0.000030686505
127      -0.000005419403
128       0.000006606510
129       0.000001208141
130       0.000019779651
131      -0.000028030749
132      -0.000006037622
133      -0.000006254876
134      -0.000002545565
135      -0.000002840947
136       0.000002484186
137       0.000000888025
138      -0.000000553321
139       0.000000340299
140       0.000004823801
141      -0.000011479684
142      -0.000004353075
143       0.000004694913
144      -0.000005065090
145      -0.000021066944
146       0.000000100365
147      -0.000001345438
148       0.000001307919
149      -0.000000931920
150       0.000000669585
151       0.000002269884
152       0.000002708274
153       0.000000855955
154      -0.000004407851
155       0.000008910088
156      -0.000026432395
157      -0.000036680514
158      -0.000029743276
159       0.000007677405
160      -0.000003034950
161       0.000000834260
162      -0.000031573210
163       0.000009812487
164      -0.000004552311
165      -0.000000372739
166      -0.000006821242
167      -0.000002978333
168       0.000002460054
169      -0.000000434483
170       0.000000525407
171      -0.000003015227
172       0.000003659664
173      -0.000011398592
174       0.000004086083
175      -0.000002110305
176       0.000015974547
177      -0.000013794662
178      -0.000000096690
179       0.000001649979
180      -0.000000926186
181       0.000000537326
182       0.000000878979
183       0.000000218981
184      -0.000003552250
 Sym=     1a
 Ene= -7.71044118377383E+01
 Spin= Alpha
 Occup= 1.000000
  1      -0.015956574888
  2      -0.019812208103
  3      -0.035443180193
  4      -0.072746474232
  5      -0.105128192570
  6      -0.035261926582
  7       0.366808587247
  8       0.693542284693
  9      -0.440998751839
 10      -0.907446409632
 11      -0.040983017708
 12      -0.036427179832
 13       0.024627371800
 14      -0.016867544255
 15       0.011431957782
 16      -0.007167148256
 17       0.002769869319
 18      -0.000723655364
 19       0.000003792761
 20       0.000004037630
 21       0.000002474979
 22       0.000005751903
 23       0.000006165173
 24       0.000003778278
 25       0.000003191554
 26       0.000004121907
 27       0.000002510220
 28      -0.000023683757
 29      -0.000028186171
 30      -0.000017231867
 31       0.000007737671
 32       0.000013625210
 33       0.000008282184
 34      -0.000028540522
 35      -0.000039155491
 36      -0.000023900716
 37       0.000052519507
 38       0.000071676129
 39       0.000043755932
 40      -0.000098105241
 41      -0.000133635323
 42      -0.000081577352
 43       0.000150821517
 44       0.000205342026
 45       0.000125349113
 46      -0.000301920901
 47      -0.000411158473
 48      -0.000250954576
 49       0.000054765873
 50       0.000074594212
 51       0.000045529283
 52      -0.000010638763
 53      -0.000014498369
 54      -0.000008848142